VARIABLES="w (rad/s)"
"abs(F   1   1)" "angle(F   1   1)"
"abs(F   1   2)" "angle(F   1   2)"
"abs(F   1   3)" "angle(F   1   3)"
"abs(F   1   4)" "angle(F   1   4)"
"abs(F   1   5)" "angle(F   1   5)"
"abs(F   1   6)" "angle(F   1   6)"
Zone t="Diffraction force - beta =   0.000 deg",I=    40,F=POINT
  0.1000000E-01  0.8201972E+03 -0.1570796E+01  0.9180739E-05 -0.1466026E+00  0.2285207E+03 -0.3052850E+01  0.1970782E-03 -0.9662915E-01  0.3725811E+04 -0.1570795E+01  0.3492136E-05 -0.1551404E+01
  0.8666667E-01  0.7052272E+04 -0.1570757E+01  0.5486994E-03 -0.4288571E+00  0.1508756E+05 -0.3036092E+01  0.2121945E-02  0.9168682E+00  0.3135474E+05 -0.1570720E+01  0.2253219E-04  0.1678501E+01
  0.1633333E+00  0.1368559E+05 -0.1570628E+01  0.1058615E-02 -0.2541347E+01  0.5212291E+05 -0.3022345E+01  0.2324594E-01  0.2975082E+01  0.5894899E+05 -0.1570463E+01  0.4402121E-04  0.1827577E+01
  0.2400000E+00  0.2108179E+05 -0.1570307E+01  0.1446242E-02  0.2555512E-01  0.1118426E+06 -0.3001065E+01  0.5941889E-02  0.2930331E+01  0.8655637E+05 -0.1569791E+01  0.4898244E-04  0.1317438E+01
  0.3166667E+00  0.2986564E+05 -0.1569502E+01  0.8254853E-02  0.7423774E-01  0.1953407E+06 -0.2967591E+01  0.6931523E-01 -0.1682745E-01  0.1141656E+06 -0.1567975E+01  0.8131751E-04 -0.1856105E+01
  0.3933333E+00  0.4051872E+05 -0.1567433E+01  0.8626463E-02  0.2974820E+01  0.3016457E+06 -0.2917761E+01  0.6255032E-01 -0.6829053E+00  0.1405527E+06 -0.1562829E+01  0.1061535E-03 -0.4402163E+00
  0.4700000E+00  0.5373587E+05 -0.1562448E+01  0.5170682E-02  0.2050859E+01  0.4246759E+06 -0.2852987E+01  0.2748195E+00 -0.2924031E+01  0.1625700E+06 -0.1548508E+01  0.2054636E-03  0.1482265E+01
  0.5466667E+00  0.6952361E+05 -0.1552349E+01  0.3386494E-01  0.3860914E+00  0.5540042E+06 -0.2784110E+01  0.8462681E+00 -0.1792915E+00  0.1726960E+06 -0.1512089E+01  0.1822978E-03 -0.1902593E+01
  0.6233333E+00  0.8558331E+05 -0.1535194E+01  0.5781705E-01  0.2191162E+00  0.6813364E+06 -0.2720821E+01  0.7629488E+00  0.2789545E+01  0.1555283E+06 -0.1418779E+01  0.8834968E-04  0.2820189E+01
  0.7000000E+00  0.1009919E+06 -0.1510558E+01  0.1864808E-01 -0.2150062E+01  0.8018172E+06 -0.2665866E+01  0.4419463E+00 -0.1397436E+01  0.1031885E+06 -0.1112629E+01  0.5208095E-03  0.1249623E+01
  0.7766666E+00  0.1115849E+06 -0.1479929E+01  0.5797671E-01  0.2157339E+01  0.9116092E+06 -0.2619254E+01  0.2234584E+00 -0.6051431E+00  0.8275300E+05  0.4650727E+00  0.3821180E-03 -0.7973593E+00
  0.8533333E+00  0.1157564E+06 -0.1450984E+01  0.5976240E-01  0.1058744E+01  0.1006390E+07 -0.2578870E+01  0.5518422E+00  0.2040707E+01  0.2690174E+06  0.1197580E+01  0.3911091E-03  0.9425846E+00
  0.9300000E+00  0.1099528E+06 -0.1440983E+01  0.3866349E-01 -0.1430629E+01  0.1082573E+07 -0.2544457E+01  0.5596529E+00  0.2656032E+01  0.5631364E+06  0.1397027E+01  0.2785565E-03 -0.2006443E+01
  0.1006667E+01  0.9339712E+05 -0.1494243E+01  0.1404327E-01  0.1160626E+01  0.1137135E+07 -0.2514003E+01  0.8393654E+00 -0.2772596E+01  0.9539416E+06  0.1520941E+01  0.7010931E-03  0.1436900E+01
  0.1083333E+01  0.6755088E+05 -0.1738756E+01  0.7264818E-01  0.1576257E+01  0.1168279E+07 -0.2485414E+01  0.1054341E+01 -0.3113484E+01  0.1418416E+07  0.1621380E+01  0.3531445E-03  0.7067196E+00
  0.1160000E+01  0.5503498E+05 -0.2479030E+01  0.1031036E+00  0.1486488E+01  0.1175548E+07 -0.2456003E+01  0.5427577E+00 -0.1906381E+01  0.1934370E+07  0.1707876E+01  0.1007091E-02  0.1774234E+01
  0.1236667E+01  0.8899363E+05 -0.3141488E+01  0.5289324E-01  0.1671068E+01  0.1161554E+07 -0.2417564E+01  0.2513546E+00  0.5022516E-01  0.2460196E+07  0.1783182E+01  0.4753644E-03  0.3092204E+01
  0.1313333E+01  0.1483762E+06  0.2929043E+01  0.7754182E-02 -0.2819220E+01  0.1137974E+07 -0.2338712E+01  0.3045643E+00  0.1343724E+00  0.2962836E+07  0.1847346E+01  0.4844924E-03 -0.1845664E+01
  0.1390000E+01  0.2152120E+06  0.2873868E+01  0.2148619E-01 -0.2001811E+00  0.1257922E+07 -0.1883490E+01  0.9006662E+00  0.1608551E+01  0.3402664E+07  0.1901221E+01  0.1882726E-02  0.2410398E+01
  0.1466667E+01  0.2800572E+06  0.2870235E+01  0.3849941E-01 -0.1801932E+01  0.7771262E+06 -0.2966986E+01  0.6451011E+00  0.1057857E+00  0.3750258E+07  0.1944164E+01  0.6271793E-03  0.3003431E+01
  0.1543333E+01  0.3387091E+06  0.2892538E+01  0.9164835E-01  0.1598271E+01  0.7235577E+06 -0.2719845E+01  0.1949027E+00  0.2244804E+01  0.3981846E+07  0.1978560E+01  0.4966044E-03 -0.3002208E+01
  0.1620000E+01  0.3850930E+06  0.2924876E+01  0.6581615E-01 -0.1545987E+01  0.6090859E+06 -0.2683543E+01  0.1040076E+01 -0.2786100E+00  0.4075757E+07  0.2004987E+01  0.1989242E-02 -0.1780674E+01
  0.1696667E+01  0.4143168E+06  0.2964782E+01  0.2598566E-01  0.1219517E+01  0.4765144E+06 -0.2696417E+01  0.6819211E+00  0.2717643E+01  0.4023470E+07  0.2023261E+01  0.2889554E-02 -0.2604526E+01
  0.1773333E+01  0.4232886E+06  0.3013136E+01  0.4666243E-01 -0.1474837E+01  0.3397283E+06 -0.2746324E+01  0.4754848E+00  0.2797455E+00  0.3819062E+07  0.2033968E+01  0.9864694E-03 -0.5106436E+00
  0.1850000E+01  0.4093648E+06  0.3072072E+01  0.4401761E-01 -0.4913235E+00  0.2084872E+06 -0.2861795E+01  0.3880896E+00 -0.1601312E+01  0.3474845E+07  0.2037356E+01  0.8239945E-03 -0.1730161E+01
  0.1926667E+01  0.3724250E+06 -0.3132254E+01  0.3532977E-01  0.1817975E+01  0.9548853E+05  0.3068305E+01  0.1147085E+00 -0.2721207E+01  0.3009386E+07  0.2032284E+01  0.2105842E-02  0.2986628E+01
  0.2003333E+01  0.3161352E+06 -0.3015668E+01  0.2536830E-01 -0.2737293E+01  0.5718423E+05  0.1608780E+01  0.2141808E+00  0.3023627E+01  0.2448988E+07  0.2016964E+01  0.8951540E-03  0.2610995E+01
  0.2080000E+01  0.2477418E+06 -0.2818532E+01  0.8065668E-02  0.3105640E+01  0.1161866E+06  0.8780921E+00  0.7417019E-01 -0.2568426E+01  0.1832027E+07  0.1986769E+01  0.8619659E-03 -0.1631117E+01
  0.2156667E+01  0.1871162E+06 -0.2434591E+01  0.5562965E-02 -0.1451885E+01  0.1634504E+06  0.6508597E+00  0.1566307E+00 -0.2341866E+00  0.1204437E+07  0.1927666E+01  0.1867960E-02  0.1523885E+01
  0.2233333E+01  0.1906056E+06 -0.1813007E+01  0.1901634E-01  0.2009950E+01  0.1797309E+06  0.4177296E+00  0.9341735E-01  0.5895768E+00  0.6029810E+06  0.1792665E+01  0.2308105E-02  0.2506126E+01
  0.2310000E+01  0.9692648E+06  0.8883478E+00  0.1689288E+00  0.3304341E+00  0.2538802E+07 -0.2598140E+01  0.1529741E+01  0.1067883E+01  0.1120729E+07  0.9064424E+00  0.3321410E-02 -0.2746069E+01
  0.2386667E+01  0.1883799E+06 -0.4501240E+00  0.2301639E-01 -0.2869417E+01  0.2199494E+06  0.6670795E+00  0.1817773E+00  0.2143517E+01  0.3152938E+06 -0.4521701E+00  0.6927819E-03 -0.1924542E+01
  0.2463333E+01  0.2867398E+06 -0.3377407E+00  0.9929393E-02 -0.1737145E+01  0.1716066E+06  0.4740232E+00  0.8587395E-01  0.1693531E+01  0.5559101E+06 -0.1018471E+01  0.4935138E-02  0.3009239E+01
  0.2540000E+01  0.3396356E+06 -0.2006835E+01  0.1163136E-01 -0.1913291E+01  0.1241865E+06  0.3041179E+00  0.7872254E-01 -0.1684236E+01  0.1093099E+07 -0.3398585E+00  0.4217809E-03 -0.2903428E+01
  0.2616667E+01  0.2265553E+06 -0.8344623E+00  0.2122135E-01 -0.5035337E-01  0.7895532E+05  0.5535686E-01  0.5847554E-01 -0.1148175E-01  0.7632072E+06 -0.8687204E+00  0.2617708E-03  0.1151774E+01
  0.2693333E+01  0.2043434E+06 -0.7595240E+00  0.1927479E-01 -0.2622597E+00  0.4514206E+05 -0.4516483E+00  0.7410396E-01 -0.3049730E+01  0.6402566E+06 -0.9902003E+00  0.6976726E-03  0.2342046E+01
  0.2770000E+01  0.1568399E+06 -0.8356956E+00  0.8807177E-02 -0.6414798E-01  0.3326356E+05 -0.1329258E+01  0.1436601E-01  0.6186444E+00  0.4556146E+06 -0.1095191E+01  0.3202966E-03 -0.2756062E+01
  0.2846667E+01  0.1023046E+06 -0.1103433E+01  0.1389275E-01  0.1555968E+01  0.3602775E+05 -0.2013432E+01  0.2997740E-01  0.1370955E+01  0.2409728E+06 -0.1237018E+01  0.3043340E-03 -0.3051350E+01
  0.2923333E+01  0.6711709E+05 -0.1728884E+01  0.5423811E-02  0.1984058E+01  0.2993026E+05 -0.2451932E+01  0.9503853E-02 -0.1935240E+01  0.3665180E+05 -0.1897727E+01  0.5732328E-03  0.1743014E+00
  0.3000000E+01  0.4131026E+05 -0.2352690E+01  0.1254281E-01  0.1567147E+01  0.9164078E+05 -0.3048501E+01  0.4136017E-01  0.3545391E+00  0.1632114E+06  0.1658301E+01  0.3946067E-03 -0.9855325E+00
