VARIABLES="w (rad/s)"
"abs(F   1   1)" "angle(F   1   1)"
"abs(F   1   2)" "angle(F   1   2)"
"abs(F   1   3)" "angle(F   1   3)"
"abs(F   1   4)" "angle(F   1   4)"
"abs(F   1   5)" "angle(F   1   5)"
"abs(F   1   6)" "angle(F   1   6)"
Zone t="Diffraction force - beta =   0.000 deg",I=    40,F=POINT
  0.1000000E-01  0.3082218E+04 -0.1570797E+01  0.1408172E+00  0.1043377E-03  0.2786244E+07 -0.7268852E-05  0.2188306E+01  0.3914071E-04  0.2640635E+05 -0.1570796E+01  0.4651847E-03 -0.7372932E-02
  0.8666667E-01  0.2688559E+05 -0.1570785E+01  0.5689551E-01 -0.8171402E-03  0.2765897E+07 -0.5744231E-03  0.1159433E+01 -0.1192678E-03  0.2300611E+06 -0.1570787E+01  0.6211334E-04  0.2261803E+01
  0.1633333E+00  0.5223684E+05 -0.1570752E+01  0.1400571E+00 -0.2505781E-02  0.2714695E+07 -0.2284167E-02  0.2423686E+01  0.3139769E+01  0.4444052E+06 -0.1570753E+01  0.5778475E-03 -0.3011466E+01
  0.2400000E+00  0.8077080E+05 -0.1570669E+01  0.2607007E+00  0.3139625E+01  0.2632244E+07 -0.5951341E-02  0.2707433E+00 -0.4563319E-02  0.6814165E+06 -0.1570670E+01  0.2631126E-03  0.2046318E+01
  0.3166667E+00  0.1148716E+06 -0.1570460E+01  0.3296195E-01  0.2534766E-01  0.2517883E+07 -0.1343166E-01  0.2596162E+01  0.3141017E+01  0.9575720E+06 -0.1570460E+01  0.1220192E-02  0.3053577E+01
  0.3933333E+00  0.1573072E+06 -0.1569930E+01  0.1979822E+00  0.8398776E-02  0.2373928E+07 -0.2820824E-01  0.2060931E+01 -0.1394268E-01  0.1292894E+07 -0.1569930E+01  0.7503727E-03 -0.9487788E-01
  0.4700000E+00  0.2107953E+06 -0.1568668E+01  0.4186818E+00  0.3128852E+01  0.2209225E+07 -0.5473858E-01  0.1987318E+01 -0.3113640E+01  0.1702338E+07 -0.1568668E+01  0.8210347E-03 -0.1520544E+01
  0.5466667E+00  0.2754709E+06 -0.1566141E+01  0.4549128E-01  0.3091279E+00  0.2036802E+07 -0.9532072E-01  0.1052123E+01 -0.3012704E+01  0.2177504E+07 -0.1566143E+01  0.3130892E-02 -0.1323540E+01
  0.6233333E+00  0.3471079E+06 -0.1562020E+01  0.1920907E+00  0.6471547E-01  0.1865527E+07 -0.1497404E+00  0.5543721E+00  0.5472199E+00  0.2681775E+07 -0.1562014E+01  0.1980867E-02 -0.2062449E+01
  0.7000000E+00  0.4223630E+06 -0.1556401E+01  0.1098895E+00 -0.3001340E+01  0.1699647E+07 -0.2177739E+00  0.6139824E+00 -0.2454512E+01  0.3177547E+07 -0.1556432E+01  0.1855248E-02 -0.9931135E+00
  0.7766666E+00  0.4948204E+06 -0.1550332E+01  0.1355792E+00  0.3445833E+00  0.1541666E+07 -0.2994676E+00  0.1661770E+00 -0.1581081E+01  0.3618455E+07 -0.1550354E+01  0.4470774E-02 -0.1496692E+01
  0.8533333E+00  0.5606210E+06 -0.1546114E+01  0.5073710E-01  0.1599370E+01  0.1394910E+07 -0.3950987E+00  0.2341944E+01  0.1994177E+00  0.3969572E+07 -0.1546084E+01  0.5680011E-02 -0.1536119E+01
  0.9300000E+00  0.6139037E+06 -0.1547609E+01  0.8162460E-01 -0.2662060E+01  0.1260466E+07 -0.5039870E+00  0.4622939E+00  0.6694341E+00  0.4202896E+07 -0.1547628E+01  0.3336668E-03 -0.2639185E+01
  0.1006667E+01  0.6513729E+06 -0.1559830E+01  0.2314630E-01  0.5987904E+00  0.1140152E+07 -0.6256717E+00  0.1560948E+01 -0.2912348E+01  0.4293556E+07 -0.1559723E+01  0.3959933E-02  0.1263427E+01
  0.1083333E+01  0.6694924E+06 -0.1587664E+01  0.1287653E+00  0.5710101E+00  0.1035453E+07 -0.7592193E+00  0.1971546E+01 -0.3117583E+01  0.4249836E+07 -0.1587672E+01  0.1049228E-02 -0.2134707E+00
  0.1160000E+01  0.6703478E+06 -0.1635570E+01  0.1049042E+00  0.1736352E+01  0.9480895E+06 -0.9027370E+00  0.5376048E+00 -0.1558932E+01  0.4086712E+07 -0.1635522E+01  0.4401428E-02  0.1615087E+01
  0.1236667E+01  0.6577886E+06 -0.1706504E+01  0.1520896E+00  0.2832502E+01  0.8855996E+06 -0.1052806E+01  0.2223907E+01 -0.3114371E+01  0.3842189E+07 -0.1706182E+01  0.4275903E-02  0.1967668E+01
  0.1313333E+01  0.6351379E+06 -0.1801184E+01  0.4813334E-01 -0.2962476E+01  0.8803550E+06 -0.1194051E+01  0.2875426E+01 -0.2255504E-01  0.3545162E+07 -0.1801013E+01  0.5033675E-02  0.1688161E+01
  0.1390000E+01  0.6060725E+06 -0.1920312E+01  0.5819346E-02 -0.2467671E+01  0.1309563E+07 -0.1153003E+01  0.8869373E+00  0.1733993E+01  0.3228059E+07 -0.1919834E+01  0.5677484E-02  0.1694435E+01
  0.1466667E+01  0.5727165E+06 -0.2061338E+01  0.3859341E-01 -0.1807048E+01  0.1408763E+06 -0.1860570E+01  0.1418591E+01  0.4491192E-01  0.2906220E+07 -0.2060864E+01  0.9984135E-03  0.1787525E+01
  0.1543333E+01  0.5389752E+06 -0.2225648E+01  0.9307895E-01  0.1615237E+01  0.3198338E+06 -0.1957699E+01  0.1449793E+01  0.3050766E+01  0.2595150E+07 -0.2224907E+01  0.1707140E-02 -0.1347192E+01
  0.1620000E+01  0.5049346E+06 -0.2411060E+01  0.6861179E-01 -0.1450414E+01  0.3238133E+06 -0.2159307E+01  0.3447481E+00 -0.8829499E+00  0.2304494E+07 -0.2409853E+01  0.7762649E-02 -0.1667253E+01
  0.1696667E+01  0.4715361E+06 -0.2615857E+01  0.7746856E-01  0.3529612E+00  0.3001514E+06 -0.2388856E+01  0.1019559E+01  0.2817627E+01  0.2034473E+07 -0.2615139E+01  0.3338741E-02 -0.2886524E+01
  0.1773333E+01  0.4397560E+06 -0.2839186E+01  0.5742978E-01 -0.2091985E+01  0.2702251E+06 -0.2636265E+01  0.2942446E+00  0.7101561E+00  0.1787972E+07 -0.2838193E+01  0.1724958E-02 -0.7756545E-01
  0.1850000E+01  0.4091396E+06 -0.3080484E+01  0.4630458E-01 -0.3876047E+00  0.2393832E+06 -0.2898693E+01  0.3687899E+00 -0.1887104E+01  0.1566019E+07 -0.3079908E+01  0.5176809E-03 -0.4743503E+00
  0.1926667E+01  0.3797246E+06  0.2944978E+01  0.5856329E-01  0.2512605E+01  0.2094637E+06  0.3108207E+01  0.1059502E+00 -0.2548317E+01  0.1366652E+07  0.2943855E+01  0.3324401E-02 -0.2493604E+01
  0.2003333E+01  0.3517717E+06  0.2671615E+01  0.2763118E-01 -0.2755446E+01  0.1802378E+06  0.2818983E+01  0.2503829E+00  0.3072552E+01  0.1186552E+07  0.2669501E+01  0.1249834E-02  0.1750007E+01
  0.2080000E+01  0.3238156E+06  0.2382545E+01  0.5736195E-01 -0.3458065E-02  0.1518917E+06  0.2512228E+01  0.4720512E-01 -0.2361452E+01  0.1022408E+07  0.2380466E+01  0.5656602E-03  0.1815084E+01
  0.2156667E+01  0.2923602E+06  0.2079007E+01  0.7549845E-02 -0.5772120E+00  0.1220869E+06  0.2195490E+01  0.4968979E-01 -0.1863458E+01  0.8720845E+06  0.2074277E+01  0.5267337E-02  0.1527329E+01
  0.2233333E+01  0.2385287E+06  0.1763650E+01  0.1636338E-01  0.1504015E+01  0.7614262E+05  0.1863028E+01  0.1210093E+00  0.5936157E+00  0.7204630E+06  0.1756024E+01  0.4553899E-02  0.2007741E+01
  0.2310000E+01  0.1326406E+07  0.1091813E+01  0.1662423E+00  0.3354964E+00  0.2673987E+07 -0.2628410E+01  0.1465076E+01  0.1157632E+01  0.1514818E+07  0.1097131E+01  0.3841345E-02  0.2580239E+01
  0.2386667E+01  0.3561159E+06  0.1074360E+01  0.4907939E-01 -0.2996672E+01  0.1466489E+06  0.1188849E+01  0.2609665E+00  0.2520246E+01  0.6008674E+06  0.1079242E+01  0.1730503E-02 -0.1737964E+01
  0.2463333E+01  0.3612782E+06  0.7244815E+00  0.2347417E-01 -0.5101763E+00  0.1089509E+06  0.8023286E+00  0.1047586E+00  0.1978949E+01  0.3909195E+06  0.7285972E+00  0.5568184E-02  0.3042932E+01
  0.2540000E+01  0.1539633E+06 -0.2769828E+01  0.3862175E-01 -0.2865491E+01  0.8841866E+05  0.4340938E+00  0.8865559E-01 -0.7433375E+00  0.1079070E+07  0.3009367E+00  0.1106969E-03  0.1349873E+01
  0.2616667E+01  0.1523811E+06 -0.5517499E-01  0.2332444E-01 -0.4188089E-01  0.7270463E+05  0.6012138E-01  0.7374993E-01 -0.2710710E-01  0.4939863E+06 -0.6686404E-01  0.2055889E-02 -0.6886294E+00
  0.2693333E+01  0.1639905E+06 -0.4426861E+00  0.2052847E-01 -0.2092763E+00  0.6030429E+05 -0.3328242E+00  0.7207946E-01 -0.3098923E+01  0.3899820E+06 -0.4497813E+00  0.1812577E-02 -0.2190396E+01
  0.2770000E+01  0.1585230E+06 -0.8452541E+00  0.1410650E-01 -0.1470982E+00  0.4883439E+05 -0.7226540E+00  0.6690379E-02 -0.1853950E+01  0.3147921E+06 -0.8463668E+00  0.2549131E-02  0.1687190E+01
  0.2846667E+01  0.1474293E+06 -0.1252829E+01  0.1414844E-01  0.1756003E+01  0.3621352E+05 -0.1117459E+01  0.3144194E-01  0.9625354E+00  0.2475276E+06 -0.1246186E+01  0.4382746E-02 -0.1476001E+01
  0.2923333E+01  0.1304188E+06 -0.1651903E+01  0.7457707E-02  0.1787843E+01  0.1930839E+05 -0.1405084E+01  0.2972689E-01 -0.2884195E+01  0.1735289E+06 -0.1638678E+01  0.1412627E-02 -0.1487107E+01
  0.3000000E+01  0.8276226E+05 -0.1930193E+01  0.1431492E-01  0.1576926E+01  0.7520551E+05 -0.3028077E+01  0.4868277E-01  0.2779768E+00  0.5133058E+05 -0.1852377E+01  0.4427701E-03  0.2823955E+01
