VARIABLES="w (rad/s)"
"abs(F   1   1)" "angle(F   1   1)"
"abs(F   1   2)" "angle(F   1   2)"
"abs(F   1   3)" "angle(F   1   3)"
"abs(F   1   4)" "angle(F   1   4)"
"abs(F   1   5)" "angle(F   1   5)"
"abs(F   1   6)" "angle(F   1   6)"
Zone t="FKforce - beta =   0.000",I=    40,F=POINT
  0.1000000E-01  0.2262021E+04 -0.1570797E+01  0.1408081E+00  0.1138688E-03  0.2786471E+07  0.4791523E-10  0.2188110E+01  0.4783386E-04  0.2268054E+05 -0.1570796E+01  0.4651044E-03  0.1327330E-03
  0.8666667E-01  0.1983332E+05 -0.1570795E+01  0.5639678E-01  0.3221377E-02  0.2780900E+07  0.2194799E-09  0.1158144E+01 -0.1573615E-02  0.1987064E+06 -0.1570798E+01  0.4504999E-04  0.2540891E+01
  0.1633333E+00  0.3855125E+05 -0.1570796E+01  0.1409304E+00  0.1752651E-02  0.2766441E+07 -0.4081600E-09  0.2400757E+01  0.3141356E+01  0.3854562E+06 -0.1570797E+01  0.5739506E-03 -0.2935308E+01
  0.2400000E+00  0.5968902E+05 -0.1570797E+01  0.2621464E+00  0.3139777E+01  0.2742938E+07  0.1346231E-08  0.2765614E+00 -0.8972668E-02  0.5948602E+06 -0.1570798E+01  0.2289122E-03  0.2189322E+01
  0.3166667E+00  0.8500600E+05 -0.1570797E+01  0.2472025E-01  0.9027532E-02  0.2710047E+07 -0.2072007E-08  0.2665468E+01  0.3140594E+01  0.8434068E+06 -0.1570796E+01  0.1206890E-02  0.2987458E+01
  0.3933333E+00  0.1167886E+06 -0.1570796E+01  0.2064821E+00  0.1117721E-02  0.2667105E+07 -0.5949950E-09  0.2012236E+01  0.5336564E-02  0.1152345E+07 -0.1570796E+01  0.6514782E-03 -0.3969137E-01
  0.4700000E+00  0.1570608E+06 -0.1570796E+01  0.4162605E+00  0.3139796E+01  0.2613028E+07  0.5185481E-08  0.1718205E+01  0.3139395E+01  0.1539804E+07 -0.1570796E+01  0.1024917E-02 -0.1548280E+01
  0.5466667E+00  0.2059561E+06 -0.1570796E+01  0.1201219E-01  0.9063113E-01  0.2546536E+07 -0.3355509E-09  0.1876164E+01  0.3133232E+01  0.2005082E+07 -0.1570796E+01  0.2979982E-02 -0.1290057E+01
  0.6233333E+00  0.2615655E+06 -0.1570796E+01  0.1352540E+00 -0.1071751E-02  0.2466558E+07 -0.6136777E-08  0.1189846E+01  0.2132181E-01  0.2527937E+07 -0.1570796E+01  0.1967826E-02 -0.2018186E+01
  0.7000000E+00  0.3215105E+06 -0.1570796E+01  0.9860260E-01  0.3139117E+01  0.2372286E+07 -0.9262230E-09  0.5528107E+00  0.3058497E+01  0.3084673E+07 -0.1570796E+01  0.2217241E-02 -0.1177994E+01
  0.7766666E+00  0.3835922E+06 -0.1570796E+01  0.1597179E+00 -0.1557298E-01  0.2263103E+07 -0.1165090E-07  0.1895513E+00 -0.2934109E+01  0.3654813E+07 -0.1570796E+01  0.4185583E-02 -0.1555492E+01
  0.8533333E+00  0.4455237E+06 -0.1570796E+01  0.3076221E-01 -0.3096687E+01  0.2138655E+07  0.1369874E-08  0.2545565E+01 -0.1103566E-01  0.4218858E+07 -0.1570796E+01  0.5993125E-02 -0.1576290E+01
  0.9300000E+00  0.5047110E+06 -0.1570796E+01  0.7782234E-01  0.3133554E+01  0.1998978E+07  0.4885309E-08  0.8578674E+00  0.2993980E-01  0.4756424E+07 -0.1570796E+01  0.1975444E-03  0.2657915E+01
  0.1006667E+01  0.5582101E+06 -0.1570796E+01  0.1352033E-01  0.1241471E-01  0.1844621E+07  0.5294110E-09  0.7390732E+00 -0.3071215E+01  0.5246050E+07 -0.1570796E+01  0.3271601E-02  0.1226430E+01
  0.1083333E+01  0.6027969E+06 -0.1570796E+01  0.1087769E+00 -0.2805887E-01  0.1676752E+07 -0.2824703E-07  0.9172240E+00 -0.3122294E+01  0.5665833E+07 -0.1570796E+01  0.8813365E-03 -0.5379733E+00
  0.1160000E+01  0.6350879E+06 -0.1570796E+01  0.2598079E-01  0.3113398E+01  0.1497235E+07  0.1744753E-07  0.1868116E+00 -0.1346890E+00  0.5994379E+07 -0.1570796E+01  0.3410800E-02  0.1568278E+01
  0.1236667E+01  0.6517314E+06 -0.1570796E+01  0.1397323E+00 -0.3096040E+01  0.1308662E+07 -0.4477377E-08  0.2475202E+01 -0.3112035E+01  0.6211948E+07 -0.1570796E+01  0.4093262E-02  0.1862715E+01
  0.1313333E+01  0.6496566E+06 -0.1570796E+01  0.4047373E-01 -0.2989832E+01  0.1114358E+07  0.2278498E-07  0.2575044E+01 -0.4104066E-01  0.6301888E+07 -0.1570796E+01  0.5484502E-02  0.1654387E+01
  0.1390000E+01  0.6263603E+06 -0.1570796E+01  0.2561227E-01  0.3116568E+01  0.9183132E+06  0.5848869E-08  0.1128816E+00 -0.2919434E+01  0.6252010E+07 -0.1570796E+01  0.4432763E-02  0.1411923E+01
  0.1466667E+01  0.5802468E+06 -0.1570796E+01  0.2184726E-03 -0.2930499E+01  0.7250566E+06 -0.3367194E-09  0.7756779E+00 -0.5704782E-02  0.6056042E+07 -0.1570796E+01  0.9772413E-03  0.1141782E+01
  0.1543333E+01  0.5109695E+06 -0.1570796E+01  0.2121795E-02  0.2437647E+01  0.5394756E+06 -0.3439393E-07  0.1322337E+01 -0.3125875E+01  0.5714858E+07 -0.1570796E+01  0.1817573E-02 -0.1071456E+01
  0.1620000E+01  0.4197301E+06 -0.1570796E+01  0.7002322E-02 -0.3376004E+00  0.3665430E+06 -0.1332125E-07  0.7813454E+00  0.3116398E+01  0.5237354E+07 -0.1570796E+01  0.5790566E-02 -0.1628363E+01
  0.1696667E+01  0.3095148E+06 -0.1570796E+01  0.6379565E-01  0.3732110E-01  0.2110142E+06 -0.4072593E-06  0.3477701E+00  0.3014625E+01  0.4640860E+07 -0.1570796E+01  0.9817819E-03  0.2436971E+01
  0.1773333E+01  0.1851924E+06 -0.1570796E+01  0.3323576E-01 -0.3040416E+01  0.7708174E+05  0.2533836E-07  0.2415966E+00  0.2888281E+01  0.3950871E+07 -0.1570796E+01  0.9271235E-03  0.3853180E+00
  0.1850000E+01  0.5342287E+05 -0.1570796E+01  0.5209307E-02  0.6774856E+00  0.3197665E+05  0.3141592E+01  0.1094672E+00  0.2792774E+01  0.3199996E+07 -0.1570796E+01  0.8262309E-03  0.7732562E+00
  0.1926667E+01  0.7765706E+05  0.1570796E+01  0.3871205E-01  0.3136469E+01  0.1141148E+06  0.3141593E+01  0.2095422E-01 -0.6344714E+00  0.2426096E+07 -0.1570796E+01  0.2400229E-02 -0.1810537E+01
  0.2003333E+01  0.1990098E+06  0.1570796E+01  0.2313355E-02 -0.2955840E+01  0.1687680E+06 -0.3141593E+01  0.3793324E-01 -0.2930865E+01  0.1669665E+07 -0.1570796E+01  0.9514077E-03  0.9553255E+00
  0.2080000E+01  0.3015105E+06  0.1570796E+01  0.6542388E-01 -0.7463418E-02  0.1969886E+06 -0.3141593E+01  0.2960687E-01  0.2393537E+00  0.9706054E+06 -0.1570796E+01  0.1411816E-02  0.1630933E+01
  0.2156667E+01  0.3769534E+06  0.1570796E+01  0.5838025E-02  0.2428392E+00  0.2014375E+06 -0.3141593E+01  0.1670687E+00 -0.3074321E+01  0.3646853E+06 -0.1570796E+01  0.3399395E-02  0.1529221E+01
  0.2233333E+01  0.4191485E+06  0.1570796E+01  0.9219782E-02 -0.9613834E-01  0.1862122E+06 -0.3141593E+01  0.2759530E-01  0.6072889E+00  0.1199384E+06  0.1570796E+01  0.2756949E-02  0.1596021E+01
  0.2310000E+01  0.4249582E+06  0.1570796E+01  0.2817234E-02 -0.3114508E+01  0.1565084E+06 -0.3141593E+01  0.1490703E+00  0.3131766E+01  0.4656724E+06  0.1570796E+01  0.3329831E-02  0.1626941E+01
  0.2386667E+01  0.3950874E+06  0.1570796E+01  0.2641115E-01 -0.3107499E+01  0.1181391E+06 -0.3141593E+01  0.1136850E+00 -0.3134076E+01  0.6674826E+06  0.1570796E+01  0.1057581E-02 -0.1616150E+01
  0.2463333E+01  0.3344492E+06  0.1570796E+01  0.2219205E-01 -0.7536123E-01  0.7696043E+05  0.3141593E+01  0.3293196E-01  0.2803431E+01  0.7335335E+06  0.1570796E+01  0.6572215E-03 -0.2984516E+01
  0.2540000E+01  0.2519278E+06  0.1570796E+01  0.3325546E-01  0.3128745E+01  0.3826980E+05 -0.3141593E+01  0.7638516E-01  0.2408362E+00  0.6842411E+06  0.1570796E+01  0.4811780E-03  0.4458887E+00
  0.2616667E+01  0.1594595E+06  0.1570796E+01  0.2111513E-02  0.4337242E-01  0.6261103E+04 -0.3141590E+01  0.1530883E-01 -0.8682469E-01  0.5497058E+06  0.1570796E+01  0.2140535E-02 -0.8067786E+00
  0.2693333E+01  0.7045774E+05  0.1570796E+01  0.1637745E-02  0.4636476E+00  0.1637938E+05 -0.9306539E-06  0.4125753E-02  0.1125344E+01  0.3657896E+06  0.1570796E+01  0.2055443E-02 -0.1849909E+01
  0.2770000E+01  0.2259287E+04 -0.1570798E+01  0.5379335E-02 -0.2831701E+00  0.2867185E+05 -0.5438952E-06  0.2004833E-01 -0.2314473E+01  0.1693078E+06  0.1570796E+01  0.2652331E-02  0.1570512E+01
  0.2846667E+01  0.4870572E+05 -0.1570796E+01  0.2811473E-02  0.3136165E+01  0.3129187E+05 -0.1394616E-06  0.1253773E-01 -0.2894168E+00  0.6926767E+04 -0.1570814E+01  0.4394682E-02 -0.1406696E+01
  0.2923333E+01  0.6370993E+05 -0.1570796E+01  0.2385174E-02  0.1328533E+01  0.2627507E+05  0.2032564E-06  0.2539404E-01  0.3089894E+01  0.1384188E+06 -0.1570797E+01  0.1571833E-02 -0.1858801E+01
  0.3000000E+01  0.4816157E+05 -0.1570797E+01  0.1776950E-02  0.1646004E+01  0.1652250E+05  0.7572831E-07  0.8088112E-02 -0.1238870E+00  0.2118960E+06 -0.1570796E+01  0.7912741E-03  0.2509960E+01
