 VARIABLES="Time (s)"
"AddedMass    1" "IRF    1"
"AddedMass    2" "IRF    2"
"AddedMass    3" "IRF    3"
"AddedMass    4" "IRF    4"
"AddedMass    5" "IRF    5"
"AddedMass    6" "IRF    6"
Zone t="DoF    1",I=  2000,F=POINT
  0.0000000E+00  0.1051422E+06  0.3897767E+06 -0.6564669E-04  0.1085576E-02  0.5603026E-01 -0.3327026E+00  0.1857485E-02 -0.7125106E-03  0.5998933E+06  0.1289809E+07  0.1599705E-03  0.3343176E-03
  0.1000000E+00  0.1051422E+06  0.3816892E+06 -0.6564669E-04  0.1059619E-02  0.5603026E-01 -0.3232329E+00  0.1857485E-02 -0.6937093E-03  0.5998933E+06  0.1268627E+07  0.1599705E-03  0.3398802E-03
  0.2000000E+00  0.1051422E+06  0.3578340E+06 -0.6564669E-04  0.9830497E-03  0.5603026E-01 -0.2953526E+00  0.1857485E-02 -0.6381459E-03  0.5998933E+06  0.1206004E+07  0.1599705E-03  0.3557586E-03
  0.3000000E+00  0.1051422E+06  0.3194082E+06 -0.6564669E-04  0.8597022E-03  0.5603026E-01 -0.2506207E+00  0.1857485E-02 -0.5483042E-03  0.5998933E+06  0.1104666E+07  0.1599705E-03  0.3795948E-03
  0.4000000E+00  0.1051422E+06  0.2683325E+06 -0.6564669E-04  0.6957437E-03  0.5603026E-01 -0.1915390E+00  0.1857485E-02 -0.4281936E-03  0.5998933E+06  0.9689972E+06  0.1599705E-03  0.4076880E-03
  0.5000000E+00  0.1051422E+06  0.2071428E+06 -0.6564669E-04  0.4993549E-03  0.5603026E-01 -0.1214149E+00  0.1857485E-02 -0.2831624E-03  0.5998933E+06  0.8048126E+06  0.1599705E-03  0.4353169E-03
  0.6000000E+00  0.1051422E+06  0.1388487E+06 -0.6564669E-04  0.2803046E-03  0.5603026E-01 -0.4417819E-01  0.1857485E-02 -0.1196454E-03  0.5998933E+06  0.6190578E+06  0.1599705E-03  0.4571569E-03
  0.7000000E+00  0.1051422E+06  0.6676634E+05 -0.6564669E-04  0.4944527E-04  0.5603026E-01  0.3583524E-01  0.1857485E-02  0.5513390E-04  0.5998933E+06  0.4194544E+06  0.1599705E-03  0.4677578E-03
  0.8000000E+00  0.1051422E+06 -0.5663396E+04 -0.6564669E-04 -0.1818467E-03  0.5603026E-01  0.1141233E+00  0.1857485E-02  0.2335024E-03  0.5998933E+06  0.2141107E+06  0.1599705E-03  0.4620432E-03
  0.9000000E+00  0.1051422E+06 -0.7506150E+05 -0.6564669E-04 -0.4022537E-03  0.5603026E-01  0.1862662E+00  0.1857485E-02  0.4076914E-03  0.5998933E+06  0.1111972E+05  0.1599705E-03  0.4357949E-03
  0.1000000E+01  0.1051422E+06 -0.1382904E+06 -0.6564669E-04 -0.6010912E-03  0.5603026E-01  0.2481708E+00  0.1857485E-02  0.5701947E-03  0.5998933E+06 -0.1818315E+06  0.1599705E-03  0.3860794E-03
  0.1100000E+01  0.1051422E+06 -0.1926168E+06 -0.6564669E-04 -0.7688482E-03  0.5603026E-01  0.2962967E+00  0.1857485E-02  0.7141093E-03  0.5998933E+06 -0.3578215E+06  0.1599705E-03  0.3115856E-03
  0.1200000E+01  0.1051422E+06 -0.2358477E+06 -0.6564669E-04 -0.8976589E-03  0.5603026E-01  0.3278533E+00  0.1857485E-02  0.8334426E-03  0.5998933E+06 -0.5110025E+06  0.1599705E-03  0.2128435E-03
  0.1300000E+01  0.1051422E+06 -0.2664329E+06 -0.6564669E-04 -0.9816859E-03  0.5603026E-01  0.3409537E+00  0.1857485E-02  0.9233716E-03  0.5998933E+06 -0.6368409E+06  0.1599705E-03  0.9230481E-04
  0.1400000E+01  0.1051422E+06 -0.2835283E+06 -0.6564669E-04 -0.1017398E-02  0.5603026E-01  0.3347214E+00  0.1857485E-02  0.9804374E-03  0.5998933E+06 -0.7322801E+06  0.1599705E-03 -0.4572298E-04
  0.1500000E+01  0.1051422E+06 -0.2870182E+06 -0.6564669E-04 -0.1003722E-02  0.5603026E-01  0.3093404E+00  0.1857485E-02  0.1002669E-02  0.5998933E+06 -0.7958176E+06  0.1599705E-03 -0.1952880E-03
  0.1600000E+01  0.1051422E+06 -0.2774941E+06 -0.6564669E-04 -0.9420697E-03  0.5603026E-01  0.2660471E+00  0.1857485E-02  0.9896280E-03  0.5998933E+06 -0.8274956E+06  0.1599705E-03 -0.3491361E-03
  0.1700000E+01  0.1051422E+06 -0.2561957E+06 -0.6564669E-04 -0.8362366E-03  0.5603026E-01  0.2070649E+00  0.1857485E-02  0.9423703E-03  0.5998933E+06 -0.8288091E+06  0.1599705E-03 -0.4991632E-03
  0.1800000E+01  0.1051422E+06 -0.2249162E+06 -0.6564669E-04 -0.6921798E-03  0.5603026E-01  0.1354863E+00  0.1857485E-02  0.8633340E-03  0.5998933E+06 -0.8025384E+06  0.1599705E-03 -0.6369440E-03
  0.1900000E+01  0.1051422E+06 -0.1858803E+06 -0.6564669E-04 -0.5176895E-03  0.5603026E-01  0.5510475E-01  0.1857485E-02  0.7561545E-03  0.5998933E+06 -0.7525253E+06  0.1599705E-03 -0.7543011E-03
  0.2000000E+01  0.1051422E+06 -0.1416016E+06 -0.6564669E-04 -0.3219693E-03  0.5603026E-01 -0.2978955E-01  0.1857485E-02  0.6254201E-03  0.5998933E+06 -0.6833959E+06  0.1599705E-03 -0.8438737E-03
  0.2100000E+01  0.1051422E+06 -0.9473017E+05 -0.6564669E-04 -0.1151532E-03  0.5603026E-01 -0.1146416E+00  0.1857485E-02  0.4763857E-03  0.5998933E+06 -0.6002636E+06  0.1599705E-03 -0.8996424E-03
  0.2200000E+01  0.1051422E+06 -0.4789912E+05 -0.6564669E-04  0.9221831E-04  0.5603026E-01 -0.1948771E+00  0.1857485E-02  0.3146628E-03  0.5998933E+06 -0.5084192E+06  0.1599705E-03 -0.9173768E-03
  0.2300000E+01  0.1051422E+06 -0.3577883E+04 -0.6564669E-04  0.2897406E-03  0.5603026E-01 -0.2661515E+00  0.1857485E-02  0.1459005E-03  0.5998933E+06 -0.4130319E+06  0.1599705E-03 -0.8949660E-03
  0.2400000E+01  0.1051422E+06  0.3605666E+05 -0.6564669E-04  0.4676652E-03  0.5603026E-01 -0.3245829E+00  0.1857485E-02 -0.2451312E-04  0.5998933E+06 -0.3188790E+06  0.1599705E-03 -0.8326126E-03
  0.2500000E+01  0.1051422E+06  0.6922622E+05 -0.6564669E-04  0.6173849E-03  0.5603026E-01 -0.3669622E+00  0.1857485E-02 -0.1917175E-03  0.5998933E+06 -0.2301168E+06  0.1599705E-03 -0.7328739E-03
  0.2600000E+01  0.1051422E+06  0.9462961E+05 -0.6564669E-04  0.7318562E-03  0.5603026E-01 -0.3909267E+00  0.1857485E-02 -0.3515912E-03  0.5998933E+06 -0.1501023E+06  0.1599705E-03 -0.6005430E-03
  0.2700000E+01  0.1051422E+06  0.1114881E+06 -0.6564669E-04  0.8059335E-03  0.5603026E-01 -0.3950861E+00  0.1857485E-02 -0.5008958E-03  0.5998933E+06 -0.8128038E+05  0.1599705E-03 -0.4423811E-03
  0.2800000E+01  0.1051422E+06  0.1195591E+06 -0.6564669E-04  0.8366077E-03  0.5603026E-01 -0.3790980E+00  0.1857485E-02 -0.6373468E-03  0.5998933E+06 -0.2512898E+05  0.1599705E-03 -0.2667133E-03
  0.2900000E+01  0.1051422E+06  0.1191176E+06 -0.6564669E-04  0.8231328E-03  0.5603026E-01 -0.3436856E+00  0.1857485E-02 -0.7596007E-03  0.5998933E+06  0.1782879E+05  0.1599705E-03 -0.8292171E-04
  0.3000000E+01  0.1051422E+06  0.1109084E+06 -0.6564669E-04  0.7670389E-03  0.5603026E-01 -0.2905988E+00  0.1857485E-02 -0.8671634E-03  0.5998933E+06  0.4795513E+05  0.1599705E-03  0.9913476E-04
  0.3100000E+01  0.1051422E+06  0.9607398E+05 -0.6564669E-04  0.6720296E-03  0.5603026E-01 -0.2225196E+00  0.1857485E-02 -0.9602315E-03  0.5998933E+06  0.6638134E+05  0.1599705E-03  0.2697361E-03
  0.3200000E+01  0.1051422E+06  0.7606391E+05 -0.6564669E-04  0.5437739E-03  0.5603026E-01 -0.1429189E+00  0.1857485E-02 -0.1039474E-02  0.5998933E+06  0.7484948E+05  0.1599705E-03  0.4199009E-03
  0.3300000E+01  0.1051422E+06  0.5253115E+05 -0.6564669E-04  0.3895974E-03  0.5603026E-01 -0.5586939E-01  0.1857485E-02 -0.1105781E-02  0.5998933E+06  0.7553020E+05  0.1599705E-03  0.5419438E-03
  0.3400000E+01  0.1051422E+06  0.2722402E+05 -0.6564669E-04  0.2180967E-03  0.5603026E-01  0.3417057E-01  0.1857485E-02 -0.1159991E-02  0.5998933E+06  0.7082826E+05  0.1599705E-03  0.6299397E-03
  0.3500000E+01  0.1051422E+06  0.1878829E+04 -0.6564669E-04  0.3869019E-04  0.5603026E-01  0.1225943E+00  0.1857485E-02 -0.1202626E-02  0.5998933E+06  0.6318905E+05  0.1599705E-03  0.6800726E-03
  0.3600000E+01  0.1051422E+06 -0.2187956E+05 -0.6564669E-04 -0.1388714E-03  0.5603026E-01  0.2048924E+00  0.1857485E-02 -0.1233677E-02  0.5998933E+06  0.5492026E+05  0.1599705E-03  0.6908447E-03
  0.3700000E+01  0.1051422E+06 -0.4262418E+05 -0.6564669E-04 -0.3050073E-03  0.5603026E-01  0.2768895E+00  0.1857485E-02 -0.1252419E-02  0.5998933E+06  0.4803682E+05  0.1599705E-03  0.6631307E-03
  0.3800000E+01  0.1051422E+06 -0.5919512E+05 -0.6564669E-04 -0.4508026E-03  0.5603026E-01  0.3349648E+00  0.1857485E-02 -0.1257328E-02  0.5998933E+06  0.4414148E+05  0.1599705E-03  0.6000790E-03
  0.3900000E+01  0.1051422E+06 -0.7074888E+05 -0.6564669E-04 -0.5684662E-03  0.5603026E-01  0.3762401E+00  0.1857485E-02 -0.1246074E-02  0.5998933E+06  0.4434272E+05  0.1599705E-03  0.5068672E-03
  0.4000000E+01  0.1051422E+06 -0.7678606E+05 -0.6564669E-04 -0.6517369E-03  0.5603026E-01  0.3987291E+00  0.1857485E-02 -0.1215619E-02  0.5998933E+06  0.4921512E+05  0.1599705E-03  0.3903298E-03
  0.4100000E+01  0.1051422E+06 -0.7715773E+05 -0.6564669E-04 -0.6962101E-03  0.5603026E-01  0.4014370E+00  0.1857485E-02 -0.1162407E-02  0.5998933E+06  0.5880143E+05  0.1599705E-03  0.2584861E-03
  0.4200000E+01  0.1051422E+06 -0.7205155E+05 -0.6564669E-04 -0.6995712E-03  0.5603026E-01  0.3844081E+00  0.1857485E-02 -0.1082657E-02  0.5998933E+06  0.7265175E+05  0.1599705E-03  0.1200016E-03
  0.4300000E+01  0.1051422E+06 -0.6196056E+05 -0.6564669E-04 -0.6617244E-03  0.5603026E-01  0.3487172E+00  0.1857485E-02 -0.9727131E-03  0.5998933E+06  0.8989575E+05  0.1599705E-03 -0.1637575E-04
  0.4400000E+01  0.1051422E+06 -0.4763677E+05 -0.6564669E-04 -0.5848089E-03  0.5603026E-01  0.2964067E+00  0.1857485E-02 -0.8294584E-03  0.5998933E+06  0.1093397E+06  0.1599705E-03 -0.1423775E-03
  0.4500000E+01  0.1051422E+06 -0.3003423E+05 -0.6564669E-04 -0.4730950E-03  0.5603026E-01  0.2303721E+00  0.1857485E-02 -0.6507455E-03  0.5998933E+06  0.1295808E+06  0.1599705E-03 -0.2507220E-03
  0.4600000E+01  0.1051422E+06 -0.1024606E+05 -0.6564669E-04 -0.3327773E-03  0.5603026E-01  0.1542037E+00  0.1857485E-02 -0.4358122E-03  0.5998933E+06  0.1491261E+06  0.1599705E-03 -0.3355452E-03
  0.4700000E+01  0.1051422E+06  0.1056243E+05 -0.6564669E-04 -0.1716556E-03  0.5603026E-01  0.7199199E-01  0.1857485E-02 -0.1856522E-03  0.5998933E+06  0.1665128E+06  0.1599705E-03 -0.3927249E-03
  0.4800000E+01  0.1051422E+06  0.3121800E+05 -0.6564669E-04  0.1262792E-05  0.5603026E-01 -0.1189117E-01  0.1857485E-02  0.9668958E-04  0.5998933E+06  0.1804158E+06  0.1599705E-03 -0.4200785E-03
  0.4900000E+01  0.1051422E+06  0.5060086E+05 -0.6564669E-04  0.1762396E-03  0.5603026E-01 -0.9302752E-01  0.1857485E-02  0.4059499E-03  0.5998933E+06  0.1897398E+06  0.1599705E-03 -0.4174275E-03
  0.5000000E+01  0.1051422E+06  0.6769762E+05 -0.6564669E-04  0.3433195E-03  0.5603026E-01 -0.1671850E+00  0.1857485E-02  0.7345999E-03  0.5998933E+06  0.1936879E+06  0.1599705E-03 -0.3865256E-03
  0.5100000E+01  0.1051422E+06  0.8164616E+05 -0.6564669E-04  0.4928701E-03  0.5603026E-01 -0.2305418E+00  0.1857485E-02  0.1072966E-02  0.5998933E+06  0.1918068E+06  0.1599705E-03 -0.3308633E-03
  0.5200000E+01  0.1051422E+06  0.9176917E+05 -0.6564669E-04  0.6161080E-03  0.5603026E-01 -0.2798837E+00  0.1857485E-02  0.1409499E-02  0.5998933E+06  0.1840026E+06  0.1599705E-03 -0.2553614E-03
  0.5300000E+01  0.1051422E+06  0.9759725E+05 -0.6564669E-04  0.7055919E-03  0.5603026E-01 -0.3127707E+00  0.1857485E-02  0.1731203E-02  0.5998933E+06  0.1705326E+06  0.1599705E-03 -0.1659879E-03
  0.5400000E+01  0.1051422E+06  0.9888134E+05 -0.6564669E-04  0.7556546E-03  0.5603026E-01 -0.3276604E+00  0.1857485E-02  0.2024213E-02  0.5998933E+06  0.1519741E+06  0.1599705E-03 -0.6931345E-04
  0.5500000E+01  0.1051422E+06  0.9559411E+05 -0.6564669E-04  0.7627424E-03  0.5603026E-01 -0.3239832E+00  0.1857485E-02  0.2274467E-02  0.5998933E+06  0.1291725E+06  0.1599705E-03  0.2794889E-04
  0.5600000E+01  0.1051422E+06  0.8792255E+05 -0.6564669E-04  0.7256481E-03  0.5603026E-01 -0.3021637E+00  0.1857485E-02  0.2468468E-02  0.5998933E+06  0.1031765E+06  0.1599705E-03  0.1193946E-03
  0.5700000E+01  0.1051422E+06  0.7625157E+05 -0.6564669E-04  0.6456209E-03  0.5603026E-01 -0.2635921E+00  0.1857485E-02  0.2594077E-02  0.5998933E+06  0.7516434E+05  0.1599705E-03  0.1993360E-03
  0.5800000E+01  0.1051422E+06  0.6114182E+05 -0.6564669E-04  0.5263446E-03  0.5603026E-01 -0.2105420E+00  0.1857485E-02  0.2641279E-02  0.5998933E+06  0.4636769E+05  0.1599705E-03  0.2631434E-03
  0.5900000E+01  0.1051422E+06  0.4330021E+05 -0.6564669E-04  0.3737737E-03  0.5603026E-01 -0.1460426E+00  0.1857485E-02  0.2602892E-02  0.5998933E+06  0.1799643E+05  0.1599705E-03  0.3074983E-03
  0.6000000E+01  0.1051422E+06  0.2354808E+05 -0.6564669E-04  0.1958521E-03  0.5603026E-01 -0.7371265E-01  0.1857485E-02  0.2475154E-02  0.5998933E+06 -0.8826053E+04  0.1599705E-03  0.3305422E-03
  0.6100000E+01  0.1051422E+06  0.2784900E+04 -0.6564669E-04  0.2104345E-05  0.5603026E-01  0.2436481E-02  0.1857485E-02  0.2258149E-02  0.5998933E+06 -0.3311944E+05  0.1599705E-03  0.3319204E-03
  0.6200000E+01  0.1051422E+06 -0.1804928E+05 -0.6564669E-04 -0.1968653E-03  0.5603026E-01  0.7821801E-01  0.1857485E-02  0.1956037E-02  0.5998933E+06 -0.5408740E+05  0.1599705E-03  0.3127180E-03
  0.6300000E+01  0.1051422E+06 -0.3801201E+05 -0.6564669E-04 -0.3899425E-03  0.5603026E-01  0.1494924E+00  0.1857485E-02  0.1577070E-02  0.5998933E+06 -0.7114396E+05  0.1599705E-03  0.2753020E-03
  0.6400000E+01  0.1051422E+06 -0.5619727E+05 -0.6564669E-04 -0.5661206E-03  0.5603026E-01  0.2123897E+00  0.1857485E-02  0.1133360E-02  0.5998933E+06 -0.8392534E+05  0.1599705E-03  0.2230832E-03
  0.6500000E+01  0.1051422E+06 -0.7177256E+05 -0.6564669E-04 -0.7151202E-03  0.5603026E-01  0.2635136E+00  0.1857485E-02  0.6404375E-03  0.5998933E+06 -0.9228734E+05  0.1599705E-03  0.1602191E-03
  0.6600000E+01  0.1051422E+06 -0.8401344E+05 -0.6564669E-04 -0.8279785E-03  0.5603026E-01  0.3001185E+00  0.1857485E-02  0.1165903E-03  0.5998933E+06 -0.9628948E+05  0.1599705E-03  0.9128201E-04
  0.6700000E+01  0.1051422E+06 -0.9233570E+05 -0.6564669E-04 -0.8975809E-03  0.5603026E-01  0.3202538E+00  0.1857485E-02 -0.4179798E-03  0.5998933E+06 -0.9617160E+05  0.1599705E-03  0.2091999E-04
  0.6800000E+01  0.1051422E+06 -0.9632265E+05 -0.6564669E-04 -0.9190951E-03  0.5603026E-01  0.3228625E+00  0.1857485E-02 -0.9421128E-03  0.5998933E+06 -0.9232220E+05  0.1599705E-03 -0.4646702E-04
  0.6900000E+01  0.1051422E+06 -0.9574702E+05 -0.6564669E-04 -0.8902868E-03  0.5603026E-01  0.3078339E+00  0.1857485E-02 -0.1434762E-02  0.5998933E+06 -0.8524424E+05  0.1599705E-03 -0.1070143E-03
  0.7000000E+01  0.1051422E+06 -0.9058622E+05 -0.6564669E-04 -0.8116895E-03  0.5603026E-01  0.2760042E+00  0.1857485E-02 -0.1876045E-02  0.5998933E+06 -0.7551922E+05  0.1599705E-03 -0.1576187E-03
  0.7100000E+01  0.1051422E+06 -0.8102954E+05 -0.6564669E-04 -0.6866252E-03  0.5603026E-01  0.2291084E+00  0.1857485E-02 -0.2248277E-02  0.5998933E+06 -0.6377410E+05  0.1599705E-03 -0.1960990E-03
  0.7200000E+01  0.1051422E+06 -0.6747681E+05 -0.6564669E-04 -0.5210571E-03  0.5603026E-01  0.1696826E+00  0.1857485E-02 -0.2536885E-02  0.5998933E+06 -0.5065093E+05  0.1599705E-03 -0.2212741E-03
  0.7300000E+01  0.1051422E+06 -0.5052786E+05 -0.6564669E-04 -0.3233046E-03  0.5603026E-01  0.1009275E+00  0.1857485E-02 -0.2731165E-02  0.5998933E+06 -0.3678202E+05  0.1599705E-03 -0.2329649E-03
  0.7400000E+01  0.1051422E+06 -0.3096174E+05 -0.6564669E-04 -0.1036060E-03  0.5603026E-01  0.2653517E-01  0.1857485E-02 -0.2824827E-02  0.5998933E+06 -0.2276942E+05  0.1599705E-03 -0.2319228E-03
  0.7500000E+01  0.1051422E+06 -0.9706133E+04 -0.6564669E-04  0.1264325E-03  0.5603026E-01 -0.4951088E-01  0.1857485E-02 -0.2816302E-02  0.5998933E+06 -0.9170758E+04  0.1599705E-03 -0.2196914E-03
  0.7600000E+01  0.1051422E+06  0.1220183E+05 -0.6564669E-04  0.3544673E-03  0.5603026E-01 -0.1231473E+00  0.1857485E-02 -0.2708780E-02  0.5998933E+06  0.3511706E+04  0.1599705E-03 -0.1984202E-03
  0.7700000E+01  0.1051422E+06  0.3366203E+05 -0.6564669E-04  0.5680973E-03  0.5603026E-01 -0.1904457E+00  0.1857485E-02 -0.2509989E-02  0.5998933E+06  0.1483621E+05  0.1599705E-03 -0.1706472E-03
  0.7800000E+01  0.1051422E+06  0.5356493E+05 -0.6564669E-04  0.7555615E-03  0.5603026E-01 -0.2478225E+00  0.1857485E-02 -0.2231719E-02  0.5998933E+06  0.2442702E+05  0.1599705E-03 -0.1390657E-03
  0.7900000E+01  0.1051422E+06  0.7084850E+05 -0.6564669E-04  0.9064071E-03  0.5603026E-01 -0.2922298E+00  0.1857485E-02 -0.1889122E-02  0.5998933E+06  0.3197721E+05  0.1599705E-03 -0.1062990E-03
  0.8000000E+01  0.1051422E+06  0.8455445E+05 -0.6564669E-04  0.1012076E-02  0.5603026E-01 -0.3213122E+00  0.1857485E-02 -0.1499840E-02  0.5998933E+06  0.3725053E+05  0.1599705E-03 -0.7469603E-04
  0.8100000E+01  0.1051422E+06  0.9388409E+05 -0.6564669E-04  0.1066404E-02  0.5603026E-01 -0.3335336E+00  0.1857485E-02 -0.1082994E-02  0.5998933E+06  0.4008559E+05  0.1599705E-03 -0.4616787E-04
  0.8200000E+01  0.1051422E+06  0.9824687E+05 -0.6564669E-04  0.1065976E-02  0.5603026E-01 -0.3282552E+00  0.1857485E-02 -0.6581351E-03  0.5998933E+06  0.4039976E+05  0.1599705E-03 -0.2207070E-04
  0.8300000E+01  0.1051422E+06  0.9730099E+05 -0.6564669E-04  0.1010329E-02  0.5603026E-01 -0.3057678E+00  0.1857485E-02 -0.2441594E-03  0.5998933E+06  0.3819351E+05  0.1599705E-03 -0.3142210E-05
  0.8400001E+01  0.1051422E+06  0.9098155E+05 -0.6564669E-04  0.9019914E-03  0.5603026E-01 -0.2672759E+00  0.1857485E-02  0.1416671E-03  0.5998933E+06  0.3355619E+05  0.1599705E-03  0.1050037E-04
  0.8500000E+01  0.1051422E+06  0.7951512E+05 -0.6564669E-04  0.7463513E-03  0.5603026E-01 -0.2148319E+00  0.1857485E-02  0.4845876E-03  0.5998933E+06  0.2666919E+05  0.1599705E-03  0.1931217E-04
  0.8600000E+01  0.1051422E+06  0.6341718E+05 -0.6564669E-04  0.5513538E-03  0.5603026E-01 -0.1512259E+00  0.1857485E-02  0.7730603E-03  0.5998933E+06  0.1780832E+05  0.1599705E-03  0.2422566E-04
  0.8700000E+01  0.1051422E+06  0.4347512E+05 -0.6564669E-04  0.3270761E-03  0.5603026E-01 -0.7984022E-01  0.1857485E-02  0.9992162E-03  0.5998933E+06  0.7343445E+04  0.1599705E-03  0.2651702E-04
  0.8800000E+01  0.1051422E+06  0.2071120E+05 -0.6564669E-04  0.8514720E-04  0.5603026E-01 -0.4464077E-02  0.1857485E-02  0.1159123E-02  0.5998933E+06 -0.4268378E+04  0.1599705E-03  0.2765298E-04
  0.8900001E+01  0.1051422E+06 -0.3665478E+04 -0.6564669E-04 -0.1618715E-03  0.5603026E-01  0.7089926E-01  0.1857485E-02  0.1252760E-02  0.5998933E+06 -0.1649304E+05  0.1599705E-03  0.2912457E-04
  0.9000000E+01  0.1051422E+06 -0.2832304E+05 -0.6564669E-04 -0.4011930E-03  0.5603026E-01  0.1422479E+00  0.1857485E-02  0.1283794E-02  0.5998933E+06 -0.2873591E+05  0.1599705E-03  0.3229071E-04
  0.9100000E+01  0.1051422E+06 -0.5187999E+05 -0.6564669E-04 -0.6205076E-03  0.5603026E-01  0.2057936E+00  0.1857485E-02  0.1259111E-02  0.5998933E+06 -0.4036550E+05  0.1599705E-03  0.3823729E-04
  0.9200000E+01  0.1051422E+06 -0.7298250E+05 -0.6564669E-04 -0.8086395E-03  0.5603026E-01  0.2581568E+00  0.1857485E-02  0.1188183E-02  0.5998933E+06 -0.5074080E+05  0.1599705E-03  0.4766787E-04
  0.9300000E+01  0.1051422E+06 -0.9038501E+05 -0.6564669E-04 -0.9561572E-03  0.5603026E-01  0.2965490E+00  0.1857485E-02  0.1082298E-02  0.5998933E+06 -0.5924485E+05  0.1599705E-03  0.6083252E-04
  0.9400001E+01  0.1051422E+06 -0.1030247E+06 -0.6564669E-04 -0.1055855E-02  0.5603026E-01  0.3189155E+00  0.1857485E-02  0.9537232E-03  0.5998933E+06 -0.6531798E+05  0.1599705E-03  0.7749889E-04
  0.9500000E+01  0.1051422E+06 -0.1100892E+06 -0.6564669E-04 -0.1103125E-02  0.5603026E-01  0.3240453E+00  0.1857485E-02  0.8148372E-03  0.5998933E+06 -0.6849488E+05  0.1599705E-03  0.9696785E-04
  0.9600000E+01  0.1051422E+06 -0.1110709E+06 -0.6564669E-04 -0.1096166E-02  0.5603026E-01  0.3116334E+00  0.1857485E-02  0.6773064E-03  0.5998933E+06 -0.6843742E+05  0.1599705E-03  0.1181310E-03
  0.9700000E+01  0.1051422E+06 -0.1058032E+06 -0.6564669E-04 -0.1036043E-02  0.5603026E-01  0.2822972E+00  0.1857485E-02  0.5513535E-03  0.5998933E+06 -0.6496277E+05  0.1599705E-03  0.1395628E-03
  0.9800000E+01  0.1051422E+06 -0.9447918E+05 -0.6564669E-04 -0.9265775E-03  0.5603026E-01  0.2375422E+00  0.1857485E-02  0.4451558E-03  0.5998933E+06 -0.5806620E+05  0.1599705E-03  0.1596410E-03
  0.9900001E+01  0.1051422E+06 -0.7764732E+05 -0.6564669E-04 -0.7741001E-03  0.5603026E-01  0.1796849E+00  0.1857485E-02  0.3644266E-03  0.5998933E+06 -0.4793265E+05  0.1599705E-03  0.1766824E-03
  0.1000000E+02  0.1051422E+06 -0.5618687E+05 -0.6564669E-04 -0.5870651E-03  0.5603026E-01  0.1117306E+00  0.1857485E-02  0.3121710E-03  0.5998933E+06 -0.3493858E+05  0.1599705E-03  0.1890816E-03
  0.1010000E+02  0.1051422E+06 -0.3126071E+05 -0.6564669E-04 -0.3755494E-03  0.5603026E-01  0.3721155E-01  0.1857485E-02  0.2886475E-03  0.5998933E+06 -0.1964044E+05  0.1599705E-03  0.1954510E-03
  0.1020000E+02  0.1051422E+06 -0.4253575E+04 -0.6564669E-04 -0.1507016E-03  0.5603026E-01 -0.3999069E-01  0.1857485E-02  0.2915308E-03  0.5998933E+06 -0.2754314E+04  0.1599705E-03  0.1947318E-03
  0.1030000E+02  0.1051422E+06  0.2330868E+05 -0.6564669E-04  0.7588833E-04  0.5603026E-01 -0.1158558E+00  0.1857485E-02  0.3162358E-03  0.5998933E+06  0.1487968E+05  0.1599705E-03  0.1862874E-03
  0.1040000E+02  0.1051422E+06  0.4984612E+05 -0.6564669E-04  0.2927896E-03  0.5603026E-01 -0.1864300E+00  0.1857485E-02  0.3563833E-03  0.5998933E+06  0.3234053E+05  0.1599705E-03  0.1699611E-03
  0.1050000E+02  0.1051422E+06  0.7381858E+05 -0.6564669E-04  0.4893333E-03  0.5603026E-01 -0.2480348E+00  0.1857485E-02  0.4043928E-03  0.5998933E+06  0.4867649E+05  0.1599705E-03  0.1460975E-03
  0.1060000E+02  0.1051422E+06  0.9381871E+05 -0.6564669E-04  0.6561478E-03  0.5603026E-01 -0.2974603E+00  0.1857485E-02  0.4521044E-03  0.5998933E+06  0.6296293E+05  0.1599705E-03  0.1155246E-03
  0.1070000E+02  0.1051422E+06  0.1086557E+06 -0.6564669E-04  0.7855972E-03  0.5603026E-01 -0.3321291E+00  0.1857485E-02  0.4914374E-03  0.5998933E+06  0.7435522E+05  0.1599705E-03  0.7950279E-04
  0.1080000E+02  0.1051422E+06  0.1174303E+06 -0.6564669E-04  0.8721365E-03  0.5603026E-01 -0.3502336E+00  0.1857485E-02  0.5150128E-03  0.5998933E+06  0.8214564E+05  0.1599705E-03  0.3964021E-04
  0.1090000E+02  0.1051422E+06  0.1195904E+06 -0.6564669E-04  0.9125241E-03  0.5603026E-01 -0.3508269E+00  0.1857485E-02  0.5166950E-03  0.5998933E+06  0.8580971E+05  0.1599705E-03 -0.2209754E-05
  0.1100000E+02  0.1051422E+06  0.1149667E+06 -0.6564669E-04  0.9059233E-03  0.5603026E-01 -0.3338730E+00  0.1857485E-02  0.4920397E-03  0.5998933E+06  0.8504286E+05  0.1599705E-03 -0.4407338E-04
  0.1110000E+02  0.1051422E+06  0.1037868E+06 -0.6564669E-04  0.8538691E-03  0.5603026E-01 -0.3002466E+00  0.1857485E-02  0.4385953E-03  0.5998933E+06  0.7978709E+05  0.1599705E-03 -0.8398444E-04
  0.1120000E+02  0.1051422E+06  0.8666301E+05 -0.6564669E-04  0.7601195E-03  0.5603026E-01 -0.2516868E+00  0.1857485E-02  0.3560687E-03  0.5998933E+06  0.7024084E+05  0.1599705E-03 -0.1201037E-03
  0.1130000E+02  0.1051422E+06  0.6455857E+05 -0.6564669E-04  0.6303958E-03  0.5603026E-01 -0.1907039E+00  0.1857485E-02  0.2463338E-03  0.5998933E+06  0.5685338E+05  0.1599705E-03 -0.1508342E-03
  0.1140000E+02  0.1051422E+06  0.3873214E+05 -0.6564669E-04  0.4720420E-03  0.5603026E-01 -0.1204491E+00  0.1857485E-02  0.1132870E-03  0.5998933E+06  0.4030543E+05  0.1599705E-03 -0.1749100E-03
  0.1150000E+02  0.1051422E+06  0.1066406E+05 -0.6564669E-04  0.2936142E-03  0.5603026E-01 -0.4454982E-01  0.1857485E-02 -0.3741073E-04  0.5998933E+06  0.2147263E+05  0.1599705E-03 -0.1914623E-03
  0.1160000E+02  0.1051422E+06 -0.1803252E+05 -0.6564669E-04  0.1044163E-03  0.5603026E-01  0.3308590E-01  0.1857485E-02 -0.1987236E-03  0.5998933E+06  0.1376789E+04  0.1599705E-03 -0.2000552E-03
  0.1170000E+02  0.1051422E+06 -0.4570449E+05 -0.6564669E-04 -0.8595401E-04  0.5603026E-01  0.1084646E+00  0.1857485E-02 -0.3626751E-03  0.5998933E+06 -0.1887118E+05  0.1599705E-03 -0.2006923E-03
  0.1180000E+02  0.1051422E+06 -0.7075906E+05 -0.6564669E-04 -0.2680893E-03  0.5603026E-01  0.1777231E+00  0.1857485E-02 -0.5208728E-03  0.5998933E+06 -0.3813702E+05  0.1599705E-03 -0.1937936E-03
  0.1190000E+02  0.1051422E+06 -0.9175641E+05 -0.6564669E-04 -0.4331999E-03  0.5603026E-01  0.2373249E+00  0.1857485E-02 -0.6649923E-03  0.5998933E+06 -0.5532963E+05  0.1599705E-03 -0.1801474E-03
  0.1200000E+02  0.1051422E+06 -0.1074948E+06 -0.6564669E-04 -0.5735126E-03  0.5603026E-01  0.2842456E+00  0.1857485E-02 -0.7872794E-03  0.5998933E+06 -0.6946588E+05  0.1599705E-03 -0.1608389E-03
  0.1210000E+02  0.1051422E+06 -0.1170817E+06 -0.6564669E-04 -0.6826067E-03  0.5603026E-01  0.3161297E+00  0.1857485E-02 -0.8809945E-03  0.5998933E+06 -0.7973083E+05  0.1599705E-03 -0.1371685E-03
  0.1220000E+02  0.1051422E+06 -0.1199841E+06 -0.6564669E-04 -0.7556633E-03  0.5603026E-01  0.3314100E+00  0.1857485E-02 -0.9407657E-03  0.5998933E+06 -0.8552703E+05  0.1599705E-03 -0.1105604E-03
  0.1230000E+02  0.1051422E+06 -0.1160587E+06 -0.6564669E-04 -0.7896521E-03  0.5603026E-01  0.3293893E+00  0.1857485E-02 -0.9628757E-03  0.5998933E+06 -0.8650985E+05  0.1599705E-03 -0.8246824E-04
  0.1240000E+02  0.1051422E+06 -0.1055587E+06 -0.6564669E-04 -0.7834180E-03  0.5603026E-01  0.3102731E+00  0.1857485E-02 -0.9454255E-03  0.5998933E+06 -0.8261130E+05  0.1599705E-03 -0.5429078E-04
  0.1250000E+02  0.1051422E+06 -0.8911577E+05 -0.6564669E-04 -0.7376939E-03  0.5603026E-01  0.2751583E+00  0.1857485E-02 -0.8884154E-03  0.5998933E+06 -0.7404207E+05  0.1599705E-03 -0.2729785E-04
  0.1260000E+02  0.1051422E+06 -0.6770061E+05 -0.6564669E-04 -0.6550260E-03  0.5603026E-01  0.2259721E+00  0.1857485E-02 -0.7937154E-03  0.5998933E+06 -0.6128184E+05  0.1599705E-03 -0.2569487E-05
  0.1270000E+02  0.1051422E+06 -0.4256482E+05 -0.6564669E-04 -0.5396288E-03  0.5603026E-01  0.1653729E+00  0.1857485E-02 -0.6649382E-03  0.5998933E+06 -0.4505091E+05  0.1599705E-03  0.1904291E-04
  0.1280000E+02  0.1051422E+06 -0.1516318E+05 -0.6564669E-04 -0.3971630E-03  0.5603026E-01  0.9660446E-01  0.1857485E-02 -0.5072435E-03  0.5998933E+06 -0.2626642E+05  0.1599705E-03  0.3693843E-04
  0.1290000E+02  0.1051422E+06  0.1293011E+05 -0.6564669E-04 -0.2344760E-03  0.5603026E-01  0.2333216E-01  0.1857485E-02 -0.3270821E-03  0.5998933E+06 -0.5990372E+04  0.1599705E-03  0.5076692E-04
  0.1300000E+02  0.1051422E+06  0.4011515E+05 -0.6564669E-04 -0.5928084E-04  0.5603026E-01 -0.5055228E-01  0.1857485E-02 -0.1318898E-03  0.5998933E+06  0.1463313E+05  0.1599705E-03  0.6041729E-04
  0.1310000E+02  0.1051422E+06  0.6485971E+05 -0.6564669E-04  0.1201944E-03  0.5603026E-01 -0.1211355E+00  0.1857485E-02  0.7024786E-04  0.5998933E+06  0.3444496E+05  0.1599705E-03  0.6598727E-04
  0.1320000E+02  0.1051422E+06  0.8578504E+05 -0.6564669E-04  0.2955642E-03  0.5603026E-01 -0.1846827E+00  0.1857485E-02  0.2709307E-03  0.5998933E+06  0.5233663E+05  0.1599705E-03  0.6774651E-04
  0.1330000E+02  0.1051422E+06  0.1017452E+06 -0.6564669E-04  0.4586634E-03  0.5603026E-01 -0.2378362E+00  0.1857485E-02  0.4617810E-03  0.5998933E+06  0.6731441E+05  0.1599705E-03  0.6609327E-04
  0.1340000E+02  0.1051422E+06  0.1118881E+06 -0.6564669E-04  0.6019029E-03  0.5603026E-01 -0.2777866E+00  0.1857485E-02  0.6347610E-03  0.5998933E+06  0.7855477E+05  0.1599705E-03  0.6151292E-04
  0.1350000E+02  0.1051422E+06  0.1157015E+06 -0.6564669E-04  0.7186079E-03  0.5603026E-01 -0.3024199E+00  0.1857485E-02  0.7824722E-03  0.5998933E+06  0.8544933E+05  0.1599705E-03  0.5453591E-04
  0.1360000E+02  0.1051422E+06  0.1130364E+06 -0.6564669E-04  0.8033281E-03  0.5603026E-01 -0.3104280E+00  0.1857485E-02  0.8984204E-03  0.5998933E+06  0.8763716E+05  0.1599705E-03  0.4570205E-04
  0.1370000E+02  0.1051422E+06  0.1041109E+06 -0.6564669E-04  0.8520780E-03  0.5603026E-01 -0.3013746E+00  0.1857485E-02  0.9772340E-03  0.5998933E+06  0.8502250E+05  0.1599705E-03  0.3553876E-04
  0.1380000E+02  0.1051422E+06  0.8949189E+05 -0.6564669E-04  0.8625413E-03  0.5603026E-01 -0.2757182E+00  0.1857485E-02  0.1014869E-02  0.5998933E+06  0.7777657E+05  0.1599705E-03  0.2453875E-04
  0.1390000E+02  0.1051422E+06  0.7005776E+05 -0.6564669E-04  0.8341855E-03  0.5603026E-01 -0.2347883E+00  0.1857485E-02  0.1008748E-02  0.5998933E+06  0.6632471E+05  0.1599705E-03  0.1315569E-04
  0.1400000E+02  0.1051422E+06  0.4694386E+05 -0.6564669E-04  0.7683139E-03  0.5603026E-01 -0.1807164E+00  0.1857485E-02  0.9578847E-03  0.5998933E+06  0.5131894E+05  0.1599705E-03  0.1802350E-05
  0.1410000E+02  0.1051422E+06  0.2147408E+05 -0.6564669E-04  0.6680247E-03  0.5603026E-01 -0.1163240E+00  0.1857485E-02  0.8629454E-03  0.5998933E+06  0.3359816E+05  0.1599705E-03 -0.9145549E-05
  0.1420000E+02  0.1051422E+06 -0.4915644E+04 -0.6564669E-04  0.5380888E-03  0.5603026E-01 -0.4497757E-01  0.1857485E-02  0.7262772E-03  0.5998933E+06  0.1414042E+05  0.1599705E-03 -0.1933816E-04
  0.1430000E+02  0.1051422E+06 -0.3075991E+05 -0.6564669E-04  0.3847476E-03  0.5603026E-01  0.2958778E-01  0.1857485E-02  0.5518883E-03  0.5998933E+06 -0.5994233E+04  0.1599705E-03 -0.2844594E-04
  0.1440000E+02  0.1051422E+06 -0.5464451E+05 -0.6564669E-04  0.2154395E-03  0.5603026E-01  0.1034563E+00  0.1857485E-02  0.3453775E-03  0.5998933E+06 -0.2572071E+05  0.1599705E-03 -0.3615070E-04
  0.1450000E+02  0.1051422E+06 -0.7528539E+05 -0.6564669E-04  0.3843967E-04  0.5603026E-01  0.1727430E+00  0.1857485E-02  0.1138034E-03  0.5998933E+06 -0.4399016E+05  0.1599705E-03 -0.4214736E-04
  0.1460000E+02  0.1051422E+06 -0.9159613E+05 -0.6564669E-04 -0.1375346E-03  0.5603026E-01  0.2337904E+00  0.1857485E-02 -0.1345033E-03  0.5998933E+06 -0.5984421E+05  0.1599705E-03 -0.4614634E-04
  0.1470000E+02  0.1051422E+06 -0.1027430E+06 -0.6564669E-04 -0.3037473E-03  0.5603026E-01  0.2833555E+00  0.1857485E-02 -0.3901833E-03  0.5998933E+06 -0.7246423E+05  0.1599705E-03 -0.4788574E-04
  0.1480000E+02  0.1051422E+06 -0.1081884E+06 -0.6564669E-04 -0.4519158E-03  0.5603026E-01  0.3187886E+00  0.1857485E-02 -0.6431455E-03  0.5998933E+06 -0.8121413E+05  0.1599705E-03 -0.4714927E-04
  0.1490000E+02  0.1051422E+06 -0.1077115E+06 -0.6564669E-04 -0.5746278E-03  0.5603026E-01  0.3381602E+00  0.1857485E-02 -0.8829478E-03  0.5998933E+06 -0.8566686E+05  0.1599705E-03 -0.4378959E-04
  0.1500000E+02  0.1051422E+06 -0.1014170E+06 -0.6564669E-04 -0.6657630E-03  0.5603026E-01  0.3403709E+00  0.1857485E-02 -0.1099181E-02  0.5998933E+06 -0.8562759E+05  0.1599705E-03 -0.3775387E-04