VARIABLES="w (rad/s)"
"A   1   1" "B   1   1"
"A   1   2" "B   1   2"
"A   1   3" "B   1   3"
"A   1   4" "B   1   4"
"A   1   5" "B   1   5"
"A   1   6" "B   1   6"
Zone t="Motion of body    1 in DoF   1",I=    40,F=POINT
  0.1000000E-01  0.2618410E+06  0.1318409E-02  0.1490116E-02 -0.7311485E-11 -0.1359463E+00 -0.1625652E-03  0.1788139E-03  0.2031157E-09  0.1189604E+07  0.1116598E-01  0.1616427E-02  0.1384477E-10
  0.8666667E-01  0.2577179E+06  0.8913658E+00  0.4676672E-03 -0.3579771E-08  0.6681589E-01  0.6856443E-03  0.1202730E-01  0.4349567E-07  0.1158835E+07  0.7627199E+01  0.3914181E-03  0.1631198E-08
  0.1633333E+00  0.2597829E+06  0.7227442E+01  0.2037749E-02 -0.3067544E-07  0.4526256E-01  0.5393364E-03  0.1131564E-01  0.4027970E-06  0.1165826E+07  0.6149308E+02  0.4382796E-03  0.5464648E-07
  0.2400000E+00  0.2626089E+06  0.3159395E+02  0.1509984E-02 -0.8102506E-07  0.1377106E+00  0.8063734E-02 -0.6008148E-02  0.3143214E-06  0.1181160E+07  0.2665458E+03  0.6708506E-04  0.6226759E-07
  0.3166667E+00  0.2672231E+06  0.1142236E+03  0.1927426E-03  0.1258217E-05 -0.2121614E+00 -0.1453587E-01 -0.1156455E-01 -0.8363277E-06  0.1205358E+07  0.9520798E+03 -0.1562267E-02  0.1188861E-05
  0.3933333E+00  0.2721184E+06  0.3845016E+03 -0.3200467E-03  0.4075468E-05 -0.1817477E+00 -0.1798475E-01 -0.1597324E-01 -0.1534820E-04  0.1237290E+07  0.3159938E+04 -0.9060450E-03 -0.9798571E-06
  0.4700000E+00  0.2795372E+06  0.1205426E+04 -0.8197541E-03 -0.8918345E-05  0.3971181E+00  0.1084585E+00  0.1259662E-01 -0.1254678E-04  0.1282907E+07  0.9734799E+04  0.1493139E-02 -0.7529070E-05
  0.5466667E+00  0.2905531E+06  0.3337651E+04  0.1884088E-03  0.1648068E-04 -0.5866632E+00 -0.1745434E+00  0.6838542E-02 -0.8553267E-05  0.1343560E+07  0.2637483E+05  0.2132182E-02  0.2063389E-04
  0.6233333E+00  0.3012235E+06  0.7968804E+04  0.3243513E-03  0.2974272E-04 -0.2262871E+00 -0.1122303E+00  0.1161545E-01  0.6173849E-03  0.1407798E+07  0.6159997E+05  0.2729079E-02  0.6427460E-04
  0.7000000E+00  0.3151003E+06  0.1676733E+05  0.4468645E-03 -0.1535416E-03 -0.1922172E+00 -0.1232414E+00 -0.1787458E-02  0.2567768E-03  0.1478143E+07  0.1260179E+06  0.7202447E-03  0.1591562E-03
  0.7766666E+00  0.3254489E+06  0.3152999E+05  0.2504930E-03 -0.3325939E-03  0.4491192E-01  0.5456543E-01 -0.8055069E-02  0.6222725E-04  0.1526171E+07  0.2303864E+06  0.4974891E-02  0.4781341E-03
  0.8533333E+00  0.3338312E+06  0.5374648E+05  0.4523993E-02 -0.9012222E-04 -0.8150339E-01 -0.1251373E+00  0.1433194E-01  0.1727104E-02  0.1543293E+07  0.3805348E+06  0.1526736E-02  0.3955790E-04
  0.9300000E+00  0.3370167E+06  0.8341060E+05 -0.4265898E-03 -0.3051758E-04 -0.9844380E-04  0.7473755E-01  0.1458609E-01 -0.8143425E-02  0.1522735E+07  0.5706843E+06  0.1477667E-02  0.3945901E-03
  0.1006667E+01  0.3334346E+06  0.1188458E+06 -0.5524993E-02  0.1152992E-02 -0.3107335E-01  0.5615234E-01 -0.6760349E-02  0.9478569E-02  0.1445728E+07  0.7837110E+06 -0.4288706E-03 -0.6020788E-03
  0.1083333E+01  0.3204710E+06  0.1566106E+06 -0.6408693E-03  0.2899170E-03  0.7090409E-01  0.8502197E-01 -0.4845254E-02  0.2975464E-03  0.1323028E+07  0.9936813E+06  0.3904086E-03  0.1327703E-02
  0.1160000E+01  0.3007289E+06  0.1928665E+06  0.2209894E-02 -0.1773834E-02 -0.1307520E-01 -0.1925659E-01 -0.7682011E-02  0.5399704E-02  0.1164376E+07  0.1175440E+07  0.1829986E-03  0.9950943E-03
  0.1236667E+01  0.2781364E+06  0.2249148E+06  0.1030276E-02 -0.8001328E-03  0.7462409E-01  0.1715088E-01  0.2529421E-02  0.1098633E-02  0.9945229E+06  0.1314570E+07  0.6651733E-03  0.1838192E-03
  0.1313333E+01  0.2541207E+06  0.2514188E+06  0.4473072E-03  0.2788544E-02  0.6025287E-01  0.1713257E+00 -0.2033215E-02  0.5693436E-02  0.8278387E+06  0.1402589E+07  0.6533577E-03  0.1234670E-02
  0.1390000E+01  0.2312037E+06  0.2714422E+06  0.9989567E-03 -0.8277893E-03  0.3214445E+00  0.4384766E+00  0.3315219E-02  0.5247116E-02  0.6777821E+06  0.1445556E+07 -0.4120046E-03  0.1925095E-02
  0.1466667E+01  0.2088751E+06  0.2854046E+06 -0.1903880E-02  0.2326965E-03 -0.1544432E-01 -0.1720581E+00  0.1935091E-02 -0.5558014E-02  0.5476708E+06  0.1447586E+07  0.1700526E-04  0.1503223E-02
  0.1543333E+01  0.1907216E+06  0.2946477E+06  0.1977381E-04 -0.7324219E-03 -0.1124784E+00  0.3760986E+00 -0.3025393E-02 -0.6818771E-02  0.4401814E+06  0.1417719E+07 -0.8105555E-04 -0.7144251E-03
  0.1620000E+01  0.1755344E+06  0.2992422E+06 -0.1177376E-02  0.3775597E-02 -0.6168507E-01 -0.5856323E-01 -0.1676583E-02 -0.6359100E-02  0.3554958E+06  0.1366235E+07 -0.3199461E-03  0.2273571E-03
  0.1696667E+01  0.1629386E+06  0.3003252E+06 -0.6295374E-04 -0.9326935E-03  0.1306605E+00  0.1629639E+00 -0.6655109E-03 -0.1165962E-01  0.2906123E+06  0.1294423E+07  0.4645518E-03  0.2884724E-02
  0.1773333E+01  0.1536935E+06  0.2986916E+06  0.3441833E-03  0.2403259E-02 -0.2794983E-01 -0.2316284E-01 -0.1135805E-02 -0.3458023E-02  0.2403582E+06  0.1214053E+07  0.9607417E-04  0.1368838E-02
  0.1850000E+01  0.1476836E+06  0.2944681E+06  0.4206477E-03 -0.9670258E-03 -0.3197335E-01  0.1245117E-01  0.2573374E-02 -0.4953384E-02  0.2038865E+06  0.1128842E+07 -0.8511533E-04 -0.3995915E-03
  0.1926667E+01  0.1443190E+06  0.2879652E+06 -0.1979946E-03  0.1327515E-02 -0.9543342E-02 -0.3442383E-01 -0.1124609E-02  0.6183624E-02  0.1803899E+06  0.1037792E+07  0.1587046E-03  0.1895018E-02
  0.2003333E+01  0.1450831E+06  0.2798525E+06 -0.3046680E-04 -0.2778053E-02  0.1983389E-01  0.1455688E-01  0.4570021E-04 -0.1316071E-02  0.1626772E+06  0.9450636E+06 -0.1096284E-04  0.3635459E-02
  0.2080000E+01  0.1517778E+06  0.2694888E+06  0.2142099E-02  0.1497269E-02  0.1236109E-01  0.1657104E-01  0.9976901E-03 -0.4983902E-02  0.1499938E+06  0.8502174E+06  0.1677075E-03 -0.1831290E-03
  0.2156667E+01  0.1675705E+06  0.2530833E+06 -0.1047125E-02  0.3204346E-03 -0.3980562E+00  0.1241760E+00  0.1415034E-02  0.3816605E-02  0.1433396E+06  0.7570412E+06 -0.7944972E-04 -0.8020144E-03
  0.2233333E+01  0.2126013E+06  0.2128395E+06 -0.3006209E-03  0.3013611E-02 -0.6038382E-01 -0.1164246E-01 -0.1229813E-02  0.1271057E-01  0.1496620E+06  0.6561514E+06  0.5636810E-04 -0.1602398E-03
  0.2310000E+01 -0.5305348E+06  0.2139684E+07  0.7133979E-03  0.1477051E-01  0.2637300E+01 -0.7187134E+01  0.6499848E-02 -0.3173828E-02 -0.4496420E+06  0.2434844E+07  0.3410862E-03  0.1472680E-02
  0.2386667E+01  0.1689942E+06  0.3601961E+06 -0.1457683E-02  0.1213074E-02 -0.4731076E-01  0.9339905E-01 -0.7160548E-03  0.6713867E-03 -0.8980697E+05  0.6131689E+06  0.2335324E-04 -0.1523732E-02
  0.2463333E+01  0.3977791E+06  0.3917989E+06  0.8919889E-03 -0.1426697E-02 -0.5005049E-01 -0.4334259E-01  0.9910988E-04 -0.7385254E-02 -0.3707112E+06  0.4099888E+06  0.2648863E-04 -0.1577425E-02
  0.2540000E+01 -0.1438402E+07 -0.1877399E+06 -0.2979669E-02  0.1007080E-02 -0.2852793E+00 -0.3873291E+00  0.1922367E-03 -0.3479004E-02  0.2612743E+07  0.6720574E+06 -0.1872134E-03 -0.8243269E-03
  0.2616667E+01 -0.1968154E+06  0.1391835E+06 -0.1096300E-02 -0.5073547E-03 -0.1110295E-01 -0.9693909E-01 -0.9096958E-03  0.3509521E-03  0.6574846E+06  0.4651242E+06 -0.5595996E-04 -0.1897734E-02
  0.2693333E+01 -0.8380684E+05  0.1621570E+06 -0.9234590E-03  0.7629395E-05 -0.1371025E-01 -0.1182556E-01 -0.5325470E-03 -0.1682281E-02  0.4936749E+06  0.4096288E+06 -0.1591477E-03 -0.1327272E-02
  0.2770000E+01 -0.4097824E+05  0.1617563E+06  0.6775563E-03 -0.2708435E-03 -0.3311763E-01  0.6301880E-02 -0.3553039E-03 -0.2239227E-02  0.4393887E+06  0.3380732E+06 -0.2451473E-03 -0.1208041E-02
  0.2846667E+01 -0.1787123E+05  0.1535889E+06 -0.2465706E-03 -0.9346008E-03 -0.3087492E-01  0.1940918E-01  0.5793068E-02  0.7781982E-03  0.4243835E+06  0.2493543E+06 -0.7940737E-04 -0.1331164E-02
  0.2923333E+01 -0.3026719E+04  0.1361905E+06 -0.3027400E-03  0.1449585E-03  0.1904130E-01 -0.7453918E-01  0.2296648E-03  0.2334595E-02  0.4268068E+06  0.1704065E+06  0.4202726E-04 -0.1705381E-03
  0.3000000E+01  0.1166662E+05  0.7712788E+05 -0.6612142E-04  0.1625061E-02 -0.1725260E-01  0.6053162E-01 -0.2054850E-02 -0.1525879E-03  0.4392142E+06  0.4667909E+05  0.1228903E-04 -0.4627904E-03
Zone t="Motion of body    1 in DoF   2",I=    40,F=POINT
  0.1000000E-01  0.4589558E-03  0.9251266E-11  0.2618411E+06  0.1311096E-02 -0.4525781E-01 -0.2463594E-09 -0.1189604E+07 -0.1105599E-01  0.8952618E-02 -0.1207923E-10 -0.6563925E-02  0.1887586E-06
  0.8666667E-01  0.4621652E-03  0.9749783E-09  0.2577178E+06  0.8912557E+00 -0.1884149E-01 -0.6670598E-07 -0.1158835E+07 -0.7627232E+01  0.1465724E-01  0.4544563E-07 -0.1115493E-01  0.2534292E-06
  0.1633333E+00  0.1144409E-02 -0.1699664E-07  0.2597829E+06  0.7227420E+01  0.1839230E-03  0.1145294E-05 -0.1165826E+07 -0.6149330E+02  0.1354607E-02 -0.7003546E-06 -0.6946530E-02 -0.1808941E-05
  0.2400000E+00 -0.7867813E-03 -0.1327135E-06  0.2626088E+06  0.3159418E+02  0.1052618E-01  0.2980232E-06 -0.1181160E+07 -0.2665464E+03 -0.1931190E-01  0.3029592E-05 -0.1041057E-01 -0.4599178E-06
  0.3166667E+00 -0.1421477E-02  0.5587935E-07  0.2672230E+06  0.1142240E+03  0.5168212E-01  0.4331395E-04 -0.1205357E+07 -0.9520826E+03 -0.1845510E-01 -0.1604669E-04 -0.5816164E-02 -0.6696887E-05
  0.3933333E+00  0.3976337E-03 -0.1776963E-05  0.2721183E+06  0.3845016E+03  0.2196684E-02  0.1397580E-03 -0.1237289E+07 -0.3159931E+04 -0.1273398E-01 -0.1401454E-04 -0.1180273E-02 -0.3204031E-04
  0.4700000E+00 -0.1704439E-03 -0.1117587E-06  0.2795370E+06  0.1205424E+04 -0.1884217E-01  0.1379550E-03 -0.1282906E+07 -0.9734789E+04  0.4025723E-02 -0.7455051E-04 -0.4118835E-02 -0.3871161E-04
  0.5466667E+00  0.8094601E-03 -0.6586313E-05  0.2905531E+06  0.3337650E+04  0.3000585E-03 -0.4545450E-03 -0.1343561E+07 -0.2637487E+05 -0.2833111E-02  0.1857281E-03  0.1699564E-02 -0.1506135E-03
  0.6233333E+00  0.1585037E-02  0.8386374E-04  0.3012233E+06  0.7968794E+04 -0.2883667E-01 -0.1353025E-02 -0.1407796E+07 -0.6159990E+05  0.7086770E-02  0.1262426E-03 -0.1278994E-01 -0.5012018E-03
  0.7000000E+00 -0.1051767E-02  0.8940697E-04  0.3151004E+06  0.1676731E+05  0.3523690E-01  0.1994610E-02 -0.1478142E+07 -0.1260179E+06 -0.1022339E-01  0.3635883E-03  0.4296083E-04 -0.8217029E-03
  0.7766666E+00 -0.4194530E-02 -0.2679825E-03  0.3254489E+06  0.3153000E+05  0.3949931E-01  0.3321648E-02 -0.1526172E+07 -0.2303864E+06  0.3605135E-02 -0.1260757E-02 -0.7772248E-02 -0.9145230E-03
  0.8533333E+00  0.1770258E-02  0.5426407E-03  0.3338309E+06  0.5374643E+05 -0.3329068E-01  0.8115768E-02 -0.1543291E+07 -0.3805342E+06  0.8296967E-02 -0.3160954E-02 -0.9084973E-02 -0.1939217E-02
  0.9300000E+00  0.2149356E-02 -0.1163483E-03  0.3370167E+06  0.8341055E+05 -0.1874944E-01  0.1665115E-02 -0.1522734E+07 -0.5706843E+06  0.4331527E-02 -0.8126259E-02 -0.8228259E-02 -0.4824297E-02
  0.1006667E+01 -0.1258092E-02  0.5726814E-03  0.3334346E+06  0.1188459E+06 -0.1067104E-01  0.1525116E-01 -0.1445728E+07 -0.7837111E+06 -0.1167145E-02 -0.3547668E-03 -0.7637207E-02 -0.1441591E-03
  0.1083333E+01  0.1957820E-02  0.5149841E-04  0.3204711E+06  0.1566105E+06 -0.2100080E-01  0.4609680E-01 -0.1323028E+07 -0.9936810E+06 -0.1777532E-01  0.6690025E-02 -0.2993107E-02 -0.1958217E-01
  0.1160000E+01 -0.2538747E-02 -0.1395226E-02  0.3007290E+06  0.1928665E+06 -0.2483828E-01  0.2468109E-01 -0.1164376E+07 -0.1175440E+07 -0.3051758E-02 -0.3925323E-02 -0.2117574E-02  0.6848690E-02
  0.1236667E+01  0.1455960E-02 -0.3121376E-02  0.2781363E+06  0.2249147E+06  0.1881951E-01 -0.6027222E-02 -0.9945229E+06 -0.1314569E+07  0.1404137E-01  0.4526138E-02 -0.1301666E-01 -0.6035404E-02
  0.1313333E+01  0.1370968E-02  0.7610321E-03  0.2541207E+06  0.2514188E+06  0.2595834E-01  0.1973343E-01 -0.8278398E+06 -0.1402590E+07 -0.3206670E-02 -0.2305222E-01 -0.1028865E-01 -0.9469002E-02
  0.1390000E+01 -0.3732366E-03  0.5216599E-03  0.2312037E+06  0.2714424E+06 -0.1631675E-01  0.6717682E-02 -0.6777811E+06 -0.1445556E+07 -0.2766342E-02 -0.5550385E-03 -0.7872014E-02  0.4162752E-02
  0.1466667E+01  0.7698751E-03  0.3943443E-02  0.2088751E+06  0.2854045E+06  0.3520358E-01 -0.1411438E-01 -0.5476705E+06 -0.1447586E+07  0.2413662E-02 -0.2429962E-02 -0.6091219E-02 -0.1002784E-01
  0.1543333E+01 -0.8502739E-03  0.1665115E-02  0.1907216E+06  0.2946476E+06 -0.4221709E-02  0.4175949E-01 -0.4401815E+06 -0.1417719E+07 -0.2491500E-02 -0.1363754E-02 -0.6212571E-02  0.1214426E-01
  0.1620000E+01  0.2919892E-03  0.2169609E-02  0.1755345E+06  0.2992420E+06  0.3388119E-02 -0.3606415E-01 -0.3554955E+06 -0.1366235E+07  0.1525879E-02 -0.2224159E-01 -0.1285640E-02 -0.1373342E-01
  0.1696667E+01  0.8453787E-03  0.3814697E-05  0.1629386E+06  0.3003251E+06  0.2093774E-03  0.8434296E-02 -0.2906122E+06 -0.1294423E+07 -0.2769964E-02 -0.1463318E-01 -0.1203782E-02 -0.1618264E-01
  0.1773333E+01 -0.1471383E-02  0.1125336E-03  0.1536935E+06  0.2986914E+06  0.7851681E-04 -0.1840591E-01 -0.2403583E+06 -0.1214054E+07 -0.3441833E-04  0.9626389E-02  0.1232205E-02 -0.2162412E-01
  0.1850000E+01 -0.1105231E-02 -0.1070976E-02  0.1476837E+06  0.2944681E+06 -0.7294320E-03  0.2211380E-01 -0.2038865E+06 -0.1128841E+07 -0.6515915E-02  0.1058960E-01 -0.5935826E-03 -0.6075023E-02
  0.1926667E+01 -0.1338444E-02 -0.3554344E-02  0.1443191E+06  0.2879652E+06 -0.8885009E-03  0.3217697E-01 -0.1803892E+06 -0.1037792E+07  0.2898641E-02  0.5832672E-02 -0.3064022E-02 -0.5452850E-02
  0.2003333E+01  0.7997536E-03  0.1023293E-02  0.1450832E+06  0.2798526E+06  0.1398617E-02  0.3647041E-01 -0.1626771E+06 -0.9450640E+06 -0.3656016E-03  0.1583099E-02 -0.5164281E-02 -0.1523525E-01
  0.2080000E+01  0.4841731E-03 -0.1014709E-02  0.1517778E+06  0.2694888E+06 -0.5989809E-02  0.2304268E-01 -0.1499939E+06 -0.8502168E+06  0.9536744E-03  0.4821777E-02 -0.4231747E-02 -0.1088604E-01
  0.2156667E+01  0.1514087E-02 -0.2553940E-02  0.1675688E+06  0.2530828E+06 -0.1374352E-02 -0.4354477E-02 -0.1433430E+06 -0.7570411E+06 -0.2235754E-02 -0.7314682E-02  0.3705484E-02 -0.7823795E-02
  0.2233333E+01 -0.1134161E-02 -0.1834869E-02  0.2126015E+06  0.2128386E+06 -0.1743089E-02 -0.7057190E-04 -0.1496623E+06 -0.6561509E+06 -0.1202484E-02 -0.6790161E-02 -0.8747717E-02 -0.8400805E-02
  0.2310000E+01  0.7081135E-02  0.2441406E-01 -0.5305326E+06  0.2139637E+07  0.1285107E-01 -0.6233215E-02  0.4496382E+06 -0.2434786E+07 -0.2113772E-02 -0.5126953E-02  0.1409415E+00  0.3215986E+00
  0.2386667E+01  0.1214736E-02  0.2395630E-02  0.1689943E+06  0.3601970E+06  0.3119953E-02  0.2123547E-01  0.8980685E+05 -0.6131684E+06 -0.2557339E-04  0.7186890E-02  0.2072368E-03 -0.1350667E-01
  0.2463333E+01  0.2948519E-02  0.4882813E-03  0.3977792E+06  0.3917992E+06  0.3865285E-02  0.8279324E-02  0.3707112E+06 -0.4099895E+06 -0.5451043E-03 -0.1115417E-01 -0.6674093E-02  0.1557845E-01
  0.2540000E+01  0.1336045E-01 -0.1556396E-02 -0.1438407E+07 -0.1877439E+06  0.5132720E-01 -0.5577087E-02 -0.2612747E+07 -0.6720569E+06  0.1922367E-01  0.1861572E-02 -0.5880410E-02 -0.3042272E-01
  0.2616667E+01  0.3032319E-02 -0.2025604E-02 -0.1968153E+06  0.1391824E+06 -0.1348799E-01 -0.2561951E-01 -0.6574830E+06 -0.4651254E+06 -0.7230916E-02 -0.1068115E-02  0.2401155E-02 -0.4578545E-02
  0.2693333E+01  0.6231932E-03  0.4119873E-03 -0.8380680E+05  0.1621570E+06  0.7721930E-02  0.6336212E-02 -0.4936745E+06 -0.4096284E+06 -0.1841253E-02 -0.3471375E-03  0.3010393E-03 -0.1634683E-01
  0.2770000E+01  0.3862898E-03 -0.5416870E-03 -0.4097824E+05  0.1617564E+06  0.8037030E-02  0.5733490E-02 -0.4393889E+06 -0.3380735E+06  0.1418461E-03  0.2201080E-02  0.6593443E-03 -0.7261316E-02
  0.2846667E+01 -0.1815778E-03 -0.4005432E-04 -0.1787124E+05  0.1535890E+06 -0.1251078E-01 -0.2542496E-02 -0.4243835E+06 -0.2493542E+06 -0.5923054E-03 -0.3662109E-03 -0.4210204E-02 -0.4985481E-02
  0.2923333E+01  0.2087862E-04  0.2548218E-02 -0.3026704E+04  0.1361905E+06  0.2081337E-02  0.6504059E-03 -0.4268070E+06 -0.1704066E+06 -0.2975203E-02  0.6599426E-03  0.1663389E-02  0.1781183E-02
  0.3000000E+01 -0.5594889E-04 -0.1281738E-02  0.1166664E+05  0.7712771E+05 -0.3119151E-02  0.1950264E-02 -0.4392142E+06 -0.4667876E+05 -0.5340576E-03 -0.2288818E-04  0.1131726E-02  0.8680306E-02
Zone t="Motion of body    1 in DoF   3",I=    40,F=POINT
  0.1000000E-01 -0.5111694E-01  0.6198883E-05  0.6003380E-01 -0.1884699E-03  0.2292812E+07  0.2022799E+04 -0.1589298E+01 -0.2825975E-02 -0.1358032E+00 -0.1435280E-03  0.3796129E-03  0.7701306E-06
  0.8666667E-01 -0.1302866E-01 -0.5340576E-04  0.7042518E-03 -0.1435041E-02  0.2013873E+07  0.1831207E+05  0.1306739E+01  0.2559900E-01  0.5619929E+00  0.4463196E-02  0.7233019E-04  0.3053938E-06
  0.1633333E+00 -0.6539483E-01 -0.2441406E-03  0.1477923E+00 -0.1927853E-02  0.1957784E+07  0.3792309E+05 -0.1262447E+01 -0.3815079E-01 -0.8908644E+00  0.1525879E-02 -0.3897786E-03  0.7875846E-05
  0.2400000E+00  0.8061727E-01  0.9155273E-04 -0.7162094E-01 -0.8983612E-03  0.1943289E+07  0.6520407E+05  0.1406733E+01 -0.1799755E+00  0.1057434E+01 -0.1629639E-01 -0.9391613E-04 -0.1202624E-04
  0.3166667E+00  0.7786801E-01  0.1907349E-02 -0.7418180E-01  0.1479340E-01  0.1944232E+07  0.1066928E+06  0.3723257E+01  0.1954536E+00  0.4309724E+00 -0.2822876E-01 -0.1612340E-04 -0.2495327E-04
  0.3933333E+00  0.9931146E-01 -0.4272461E-03 -0.5516441E-01 -0.5657196E-02  0.1934885E+07  0.1700951E+06 -0.9516054E+00  0.1071129E+00  0.5337991E+00  0.3503418E-01  0.2490302E-05 -0.1043128E-04
  0.4700000E+00 -0.3480303E-01  0.1464844E-02 -0.1224599E+00 -0.1083755E-01  0.1889682E+07  0.2570960E+06  0.1770604E+01  0.2897110E+00 -0.1585356E+01 -0.8044434E-01 -0.3518363E-03  0.6686762E-04
  0.5466667E+00  0.2634932E-01 -0.8544922E-02  0.8711465E-01  0.1995850E-01  0.1802301E+07  0.3548978E+06 -0.2455065E+01  0.2767334E+00 -0.4198028E-01 -0.2563477E-02 -0.4101800E-03 -0.1015370E-03
  0.6233333E+00 -0.2663353E-01  0.7812500E-02 -0.8592250E-02  0.2455139E-01  0.1691274E+07  0.4478521E+06 -0.2276579E-01 -0.2680664E+00 -0.3634693E+00 -0.5615234E-02 -0.1889406E-03 -0.9887607E-04
  0.7000000E+00 -0.1848493E-01  0.8666992E-02 -0.5865915E-01 -0.2647400E-01  0.1576827E+07  0.5283011E+06 -0.6384277E+00  0.1038467E+01  0.1325335E-01  0.6896973E-01 -0.3511698E-03 -0.3124055E-03
  0.7766666E+00 -0.6035408E-01 -0.2636719E-01  0.7108108E-01 -0.3154755E-01  0.1470078E+07  0.5936472E+06  0.6455843E+00  0.1239578E+01 -0.4287655E+00 -0.3684082E+00 -0.2163994E-03 -0.1607358E-04
  0.8533333E+00 -0.1173020E-01 -0.1782227E-01  0.6866456E-02 -0.4577637E-01  0.1374646E+07  0.6445818E+06 -0.1604819E+01 -0.9353638E+00  0.2803803E-01 -0.5285645E+00 -0.5861603E-04 -0.3137393E-05
  0.9300000E+00 -0.2730175E-01 -0.2661133E-01 -0.2264207E-02 -0.5813599E-02  0.1294806E+07  0.6811288E+06  0.3812400E+00  0.8572388E-01 -0.4063760E+00 -0.4091797E+00  0.1359260E-03 -0.2758428E-03
  0.1006667E+01  0.4316922E-01 -0.9765625E-02  0.5608361E-02  0.5044556E-01  0.1232510E+07  0.7064996E+06 -0.5759938E+00 -0.2491455E+00  0.5810868E+00 -0.1589355E+00 -0.2701451E-05  0.1538259E-03
  0.1083333E+01 -0.3605770E-02  0.2685547E-01 -0.3428299E-01 -0.2066040E-01  0.1189837E+07  0.7254047E+06  0.1827562E+01  0.4468384E+00 -0.1884015E+00  0.5209961E+00  0.1235287E-03 -0.4172532E-03
  0.1160000E+01 -0.1304890E-01  0.4394531E-02  0.2472976E-01  0.3889465E-01  0.1174270E+07  0.7453967E+06  0.1486627E+01 -0.3552246E-01  0.2138335E+00  0.1457520E+00  0.5325961E-04 -0.1694541E-04
  0.1236667E+01  0.8291566E-02  0.2612305E-01  0.1143545E+00  0.1620789E+00  0.1201928E+07  0.7869048E+06 -0.1524069E+01  0.4031372E+00  0.1666210E+00  0.2382812E+00 -0.1795444E-04  0.2948865E-03
  0.1313333E+01 -0.1561509E-01  0.2832031E-01 -0.9954619E-01  0.3692627E-01  0.1333348E+07  0.9264482E+06 -0.9349535E+00 -0.4027710E+00  0.1948168E+00 -0.2368164E+00  0.3869717E-05 -0.1825728E-03
  0.1390000E+01  0.4131070E+00  0.2343750E+00  0.4264557E+00 -0.2832031E-01  0.2144718E+07  0.2360587E+07 -0.1881815E+01 -0.2058350E+01  0.1905351E+01 -0.1027344E+01  0.1115497E-03  0.1126416E-03
  0.1466667E+01 -0.2663352E-01 -0.2187500E+00  0.2059936E+00 -0.1435852E-01 -0.9896027E+04  0.3042828E+05  0.8023347E-01  0.8990479E-01 -0.5007101E+00 -0.6582031E+00  0.3141054E-04 -0.1919596E-04
  0.1543333E+01 -0.2531048E-02  0.7897949E-01 -0.9115727E-01  0.1825714E-01  0.5395131E+06  0.2050854E+06 -0.7151793E+00  0.1189728E+00  0.1562922E+00  0.7031250E+00 -0.2605089E-05  0.7842085E-04
  0.1620000E+01  0.4943094E-01 -0.6524658E-01  0.6809941E-01  0.2510834E-01  0.6709796E+06  0.2427558E+06  0.6312618E+00  0.3354034E+00  0.1624590E+00 -0.2508545E+00  0.1340357E-05  0.2198003E-04
  0.1696667E+01  0.7669564E-01 -0.1165771E-01  0.2844610E-01  0.3316307E-01  0.7323746E+06  0.2406025E+06 -0.2124958E+00 -0.1189766E+00 -0.1856236E-01 -0.8632812E+00 -0.4746862E-05  0.1153645E-03
  0.1773333E+01  0.1789753E-01 -0.2590942E-01  0.4226571E-01  0.5165100E-02  0.7690872E+06  0.2233820E+06 -0.6855099E+00  0.1146469E+00  0.2898023E+00  0.2546387E+00  0.2792051E-04 -0.1921331E-03
  0.1850000E+01  0.4156989E-02 -0.1808167E-02  0.8075611E-01 -0.7457733E-02  0.7948594E+06  0.2006560E+06  0.1211964E+01 -0.3744869E+00  0.1636402E-01  0.6021881E+00 -0.2049287E-05  0.3511037E-03
  0.1926667E+01 -0.2127254E-01  0.1553345E-01  0.3172072E-01  0.1181698E-01  0.8155690E+06  0.1761733E+06  0.1131662E+01 -0.2064266E+00 -0.1142793E+01 -0.8561554E+00 -0.1861577E-04  0.3168013E-04
  0.2003333E+01 -0.3109328E-01 -0.4765320E-01  0.8184384E-02  0.5233479E-01  0.8313453E+06  0.1496696E+06 -0.7863180E+00  0.8347511E-01  0.4773063E+00 -0.3127670E+00 -0.2824521E-04 -0.4716891E-04
  0.2080000E+01  0.3833037E-01  0.2518959E+00 -0.4152426E-01  0.9781361E-02  0.8404924E+06  0.1257286E+06 -0.8092660E-01  0.1509981E+00  0.4463636E+00 -0.9640007E+00 -0.4194325E-04  0.1286067E-03
  0.2156667E+01 -0.5280908E+01  0.3757378E+01  0.4565254E-02  0.7299900E-02  0.8380951E+06  0.9906875E+05  0.1107813E+00 -0.3115082E-01  0.7291078E+01 -0.6535896E+01  0.7182496E-05 -0.6607552E-04
  0.2233333E+01  0.2668079E+00  0.3217468E+00  0.6162730E-02 -0.4229164E-01  0.7945777E+06  0.5955455E+05 -0.8885410E-01 -0.9346008E-03 -0.2121111E+00  0.4970398E+00 -0.4949309E-05 -0.4037374E-04
  0.2310000E+01 -0.3094900E+02  0.2671406E+03  0.4142993E-01 -0.1464844E+00 -0.3416956E+07  0.1098089E+08  0.1178851E+01 -0.1122754E+02 -0.3438176E+02  0.2979297E+03  0.1236790E-02  0.6668642E-04
  0.2386667E+01  0.4721870E+00  0.3409119E+00  0.1283145E-01 -0.9078979E-02  0.1051148E+07  0.1388141E+06  0.6229805E+00  0.3962860E+00 -0.6215355E+00  0.2747559E+01  0.1378097E-04 -0.3633776E-04
  0.2463333E+01 -0.3054566E+00  0.3044128E-01 -0.9322523E-02 -0.3956795E-01  0.1011159E+07  0.8279254E+05 -0.1214294E+01  0.1301765E-01  0.3986199E+00  0.6111145E-01  0.1683791E-04 -0.3006040E-04
  0.2540000E+01  0.7757713E+00 -0.1082916E+00 -0.8049913E-02 -0.1750183E-01  0.1005117E+07  0.8101041E+05 -0.1886948E+01 -0.9088516E-02 -0.1396792E+01  0.3616028E+00 -0.4264651E-05  0.1037772E-03
  0.2616667E+01 -0.1321158E+00  0.4097137E+00 -0.1895783E-01  0.4074097E-02  0.9950054E+06  0.6512266E+05  0.6767904E+00 -0.6756973E-01  0.3412992E+00  0.1017212E+01  0.2319616E-04 -0.6852573E-04
  0.2693333E+01  0.8883336E-01  0.3088379E-01 -0.7608623E-02 -0.2307415E-02  0.9986633E+06  0.2009785E+05 -0.1306893E+00 -0.1343632E-01 -0.2164633E+00 -0.2913666E-01 -0.7916474E-05 -0.1430271E-04
  0.2770000E+01  0.9166291E-02  0.7648468E-02  0.8956964E-02 -0.1609123E-01  0.1014266E+07  0.2023183E+05 -0.8892404E+00 -0.2767229E-01 -0.1614677E+00  0.6374359E-01  0.3507884E-04 -0.2726240E-04
  0.2846667E+01  0.9519768E-02  0.5775452E-02 -0.7354235E-02 -0.1285410E-01  0.1011763E+07  0.4630675E+05 -0.7097480E+00 -0.1111984E+00 -0.4926265E+00 -0.5608368E-01  0.1421962E-04 -0.8010895E-05
  0.2923333E+01  0.9854709E-02 -0.1934814E-01 -0.9238789E-02  0.2756119E-03  0.1006422E+07  0.1930515E+05 -0.1775309E+00  0.1592636E-02 -0.5403387E+00  0.1894989E+00  0.2344241E-04 -0.1430200E-04
  0.3000000E+01  0.2897135E-01  0.9706116E-01  0.2232870E-01  0.1064682E-01  0.1046269E+07 -0.8209538E+05 -0.1403707E+01  0.1349869E+00 -0.2902018E+00  0.4419250E+00  0.4940806E-04 -0.3455908E-04
Zone t="Motion of body    1 in DoF   4",I=    40,F=POINT
  0.1000000E-01 -0.1473427E-01  0.4035883E-10 -0.1156643E+07 -0.1037171E-01 -0.3647804E+00 -0.1787612E-08  0.2142000E+08  0.8833165E-01  0.1276970E+00 -0.1494868E-08  0.5745901E-01  0.7325924E-06
  0.8666667E-01  0.5501967E-02  0.1327135E-07 -0.1122332E+07 -0.7408616E+01  0.9884174E+00 -0.1966953E-05  0.2142730E+08  0.6342313E+02  0.3250562E+00  0.1140870E-07  0.1499518E-01  0.2364931E-04
  0.1633333E+00 -0.2428951E-02 -0.1504086E-06 -0.1131715E+07 -0.5978233E+02  0.4551480E+00 -0.5085021E-06  0.2151049E+08  0.5085107E+03 -0.1084153E+00 -0.1872890E-05 -0.1049384E-01  0.4813196E-04
  0.2400000E+00 -0.4164378E-02 -0.1514331E-05 -0.1147052E+07 -0.2592099E+03 -0.1717885E+00 -0.8746237E-04  0.2159677E+08  0.2186672E+04  0.2403259E+00  0.8318573E-05  0.3632166E-02 -0.2613620E-04
  0.3166667E+00  0.1276920E-02  0.5736947E-06 -0.1168992E+07 -0.9264302E+03  0.6148488E-01  0.2504885E-03  0.2173070E+08  0.7722819E+04  0.1074540E+00 -0.2476573E-04  0.2425194E-02 -0.2139254E-03
  0.3933333E+00  0.8806133E-02 -0.5185604E-05 -0.1197800E+07 -0.3074043E+04 -0.3894871E-01  0.1005173E-02  0.2194179E+08  0.2526400E+05 -0.2378044E+00  0.2090931E-03  0.1109094E-01  0.3531270E-03
  0.4700000E+00  0.1006431E-02  0.7170439E-04 -0.1245804E+07 -0.9469228E+04 -0.4343885E+00  0.1060009E-02  0.2226768E+08  0.7644917E+05  0.1177199E+00 -0.1379251E-03 -0.8156243E-03 -0.4257882E-03
  0.5466667E+00 -0.7257229E-02  0.2264977E-04 -0.1304701E+07 -0.2566919E+05 -0.4890256E+00  0.3225327E-02  0.2260948E+08  0.2029422E+06 -0.9121779E-01  0.1892805E-02 -0.2135295E-01  0.5539158E-05
  0.6233333E+00 -0.2447934E-03 -0.5102158E-04 -0.1365435E+07 -0.5999056E+05 -0.7010884E+00 -0.3587723E-02  0.2300226E+08  0.4635793E+06  0.1163258E+00  0.4005432E-03 -0.1265008E-01  0.5456306E-03
  0.7000000E+00 -0.3095354E-02 -0.2069473E-03 -0.1437804E+07 -0.1226197E+06  0.6108747E+00 -0.2685547E-02  0.2336186E+08  0.9232701E+06  0.1619612E+00 -0.4673004E-04 -0.9975358E-02  0.5068726E-02
  0.7766666E+00 -0.1886065E-02  0.1525879E-03 -0.1483703E+07 -0.2241953E+06  0.7046025E+00  0.8361816E-02  0.2359334E+08  0.1638610E+07 -0.8872364E-01  0.2197266E-02  0.3833760E-01  0.3850868E-02
  0.8533333E+00  0.1702309E-01  0.1071930E-02 -0.1500392E+07 -0.3703428E+06  0.2243042E+00  0.2648163E-01  0.2355434E+08  0.2619703E+07 -0.9770394E-01 -0.7987976E-02  0.1909242E-01  0.7433753E-02
  0.9300000E+00  0.3839308E-02  0.6057739E-02 -0.1480263E+07 -0.5554157E+06 -0.1719485E+00 -0.7147217E-01  0.2320055E+08  0.3800208E+07 -0.1796927E+00 -0.6790161E-03 -0.1587893E-01  0.1060731E-01
  0.1006667E+01  0.8306437E-02  0.7190704E-02 -0.1404787E+07 -0.7638547E+06  0.2579240E+00 -0.1703644E+00  0.2252696E+08  0.5032416E+07 -0.3534783E-01 -0.1628113E-01  0.2419256E-01 -0.1506763E-02
  0.1083333E+01 -0.4845254E-02  0.6542206E-02 -0.1283797E+07 -0.9684725E+06 -0.4769758E+00 -0.2453003E+00  0.2156731E+08  0.6145318E+07  0.2664326E+00 -0.3810120E-01  0.3497753E-01  0.2013952E-01
  0.1160000E+01  0.3183299E-02  0.1293182E-02 -0.1128749E+07 -0.1145285E+07 -0.2208841E+00 -0.1270752E+00  0.2048967E+08  0.6979003E+07  0.1412227E+00  0.9360504E-01 -0.7283948E-02  0.6267924E-01
  0.1236667E+01 -0.5873193E-02 -0.7019043E-03 -0.9620739E+06 -0.1281611E+07  0.2059072E+00 -0.2596436E+00  0.1940042E+08  0.7479268E+07 -0.3834849E-01  0.7397461E-01 -0.3675343E-01  0.3801385E-01
  0.1313333E+01  0.4089666E-02  0.1766968E-01 -0.7976624E+06 -0.1368987E+07 -0.1574522E+00  0.7916260E-01  0.1843591E+08  0.7634193E+07 -0.3824767E-01 -0.3311920E-01 -0.4794285E-02  0.4000740E-01
  0.1390000E+01 -0.5488773E-03  0.4676819E-02 -0.6504348E+06 -0.1412137E+07  0.2048849E+00  0.6707764E-01  0.1761698E+08  0.7509909E+07 -0.8312198E-01  0.4641724E-01  0.2118905E-01 -0.7405368E-02
  0.1466667E+01 -0.3578879E-02  0.4322052E-02 -0.5234987E+06 -0.1407570E+07 -0.1393266E+00 -0.3052368E+00  0.1699227E+08  0.7131630E+07 -0.9904339E-02  0.2243042E-01 -0.1073804E-01  0.2146791E-01
  0.1543333E+01  0.9491430E-03  0.7381439E-02 -0.4170984E+06 -0.1380784E+07  0.6113272E+00  0.9686279E-01  0.1654407E+08  0.6639712E+07 -0.3907305E-01 -0.6147003E-01 -0.2157864E-01  0.3198349E-01
  0.1620000E+01 -0.7384500E-02  0.2358627E-01 -0.3321663E+06 -0.1332437E+07  0.2444420E+00 -0.7188416E-01  0.1622794E+08  0.6063942E+07 -0.1822766E+00 -0.2606964E-01 -0.3908557E-01 -0.2947352E-01
  0.1696667E+01 -0.6223427E-02 -0.1010895E-01 -0.2646515E+06 -0.1266127E+07  0.3722544E+00  0.1529541E+00  0.1604677E+08  0.5459124E+07  0.1184250E+00 -0.1731110E-01 -0.2063047E-01  0.7194780E-02
  0.1773333E+01 -0.7916216E-03 -0.1518250E-02 -0.2104527E+06 -0.1189816E+07 -0.9884944E-01 -0.4531860E-01  0.1595338E+08  0.4839108E+07 -0.1239060E-01  0.9932709E-01 -0.3050063E-01  0.5512718E-01
  0.1850000E+01 -0.6994299E-02 -0.1131439E-01 -0.1683712E+06 -0.1110933E+07 -0.3845545E+00  0.7640076E-01  0.1591722E+08  0.4247290E+07 -0.1974240E+00  0.3310013E-01 -0.3076900E-02  0.6375414E-01
  0.1926667E+01 -0.1330524E-02 -0.9613037E-03 -0.1331000E+06 -0.1022548E+07  0.5351241E+00 -0.3495789E-01  0.1593422E+08  0.3695731E+07 -0.6500560E-01 -0.1152039E-01 -0.1167487E-01  0.8859615E-02
  0.2003333E+01  0.6062894E-02  0.7247925E-04 -0.9502240E+05 -0.9366849E+06 -0.1250358E+00  0.1137161E+00  0.1597509E+08  0.3170896E+07  0.5569332E-01 -0.4690552E-01  0.1904821E-01  0.8798284E-01
  0.2080000E+01 -0.1437848E-02 -0.1308441E-02 -0.4618187E+05 -0.8486342E+06  0.3775963E+00  0.2217865E-01  0.1601394E+08  0.2681081E+07  0.2951402E+00 -0.1161957E-01 -0.1522232E-01 -0.1150826E-01
  0.2156667E+01  0.6226151E-03 -0.2407074E-02  0.4222280E+05 -0.7560279E+06  0.6158229E-01 -0.5451965E-01  0.1603677E+08  0.2241832E+07 -0.3967756E-01  0.1424408E-01 -0.4839959E-01  0.7028943E-01
  0.2233333E+01 -0.5465835E-02  0.5661011E-02  0.3302242E+06 -0.6227869E+06 -0.5143351E+00  0.8419037E-02  0.1590929E+08  0.1757120E+07  0.1836521E+00  0.2507019E-01  0.3761695E-01  0.2402215E+00
  0.2310000E+01  0.2198322E-01  0.3515625E-01 -0.8607844E+07  0.5583160E+07 -0.2649613E+00  0.5651855E-01  0.2338304E+08 -0.6295566E+07 -0.2874730E-01  0.1318359E-01 -0.7279353E+00  0.8868078E+00